15
 energy: -25.407941763948 gnorm: 0.000354420395 xtb: 6.3.3 (5b13467)
O        -1.06813862675493    1.98473376826692   -0.45928556418776
H        -0.47791381784413    2.66685016349781   -0.78274379810972
H        -0.97788715574838    1.23141428860964   -1.08554370609372
O        -0.75185728077921   -0.10390492300628   -2.11969118480369
H        -0.16388737168872   -0.75850551570489   -1.67756160128788
H        -1.55816171379962   -0.57583098001858   -2.33263972603686
O         1.48162815642984   -0.78498731341620    1.47403303619286
H         0.82570458942044   -0.07582516984902    1.65707220111269
H         1.53497934189082   -1.31220153826348    2.27240423327763
O        -0.46437178967112    1.00468185666292    1.96116646097853
H        -1.29964667490405    0.66638397774211    2.28787219619190
H        -0.67017674862268    1.42761114968812    1.09665736776545
O         0.83945964592067   -1.88224334934352   -0.89073464238511
H         1.05703305572344   -1.50343346076037   -0.01001763371444
H         1.67671427042990   -1.96813119410415   -1.34971502890329
15
 energy: -25.394799450786 gnorm: 0.081111137655 xtb: 6.3.3 (5b13467)
O        -1.01979729334284    1.95579977840672   -0.41988166103803
H        -0.27251556569836    2.54877259436836   -0.62762867350864
H        -1.11788394643412    1.23786614558479   -1.11766071640440
O        -0.76363564266284   -0.08891701924135   -2.14729571889651
H        -0.01867240589185   -0.63936950692046   -1.77870067518527
H        -1.45247645081485   -0.69066705554183   -2.45328925768312
O         1.51120233306586   -0.72656288059897    1.45518725786490
H         0.96692024592501    0.08105418764720    1.54861733476970
H         1.67544342096489   -1.24462798740935    2.30070519031077
O        -0.51827641111069    0.98883804460509    1.94462485236419
H        -1.27442037962252    0.63373890979287    2.38849836845287
H        -0.79187226980791    1.28603235745539    1.03057166665076
O         0.76011699486089   -1.93201306830937   -0.90137284133335
H         0.87361230371838   -1.57442122375531    0.05170945176904
H         1.67440185434393   -1.83442291354957   -1.17748751494131
15
 energy: -25.389582267880 gnorm: 0.107495208352 xtb: 6.3.3 (5b13467)
O        -0.97536687077018    1.93844301349150   -0.38779536782530
H        -0.13290036398444    2.33778437857384   -0.50954093674254
H        -1.17642990303769    1.32431650259033   -1.12698171947104
O        -0.77131676369085   -0.07003723330333   -2.18233647007506
H        -0.00176631042893   -0.54253807138860   -1.86863873547664
H        -1.30691661605510   -0.78045345707731   -2.53599903293825
O         1.56254655770181   -0.69003155952255    1.41977621126338
H         1.07732848696328    0.14327865630952    1.57729215563192
H         1.71419517555737   -1.02757886973189    2.25130011616924
O        -0.54796442529669    0.97851706962856    1.92350141000873
H        -1.28424321336274    0.59836583439423    2.49579406745987
H        -0.91724688981347    1.15515553871403    1.04012154876610
O         0.70626152562820   -1.95546088367926   -0.87219170822959
H         0.63211946974713   -1.67328482379302    0.03818233710381
H         1.64019747695936   -1.74823175036869   -1.07496787988946
15
 energy: -25.377225338778 gnorm: 0.138966958550 xtb: 6.3.3 (5b13467)
O        -0.96185807245659    1.93640692207163   -0.36939901202526
H         0.01021843583054    2.10800487043587   -0.43736571676135
H        -1.14438346181117    1.39419026716505   -1.14128666543103
O        -0.78712582553448   -0.05548839621066   -2.23862847962638
H         0.04867692152636   -0.47566777452682   -1.87410451692710
H        -1.20832155646679   -0.83417375455393   -2.62311122571616
O         1.61174957934713   -0.63433530303610    1.35831710486654
H         1.11891751709313    0.18124213321487    1.58404130297927
H         1.79062483219332   -0.88560390127402    2.32946518737262
O        -0.58480685706533    0.93695049167001    1.94920245696674
H        -1.22554340224594    0.61615599578843    2.50656503588366
H        -1.02042058194344    1.08529024798721    1.07534381351141
O         0.68091183108406   -1.96639527477660   -0.86171885978593
H         0.36128341466371   -1.75570611517780    0.09733841377725
H         1.57444039189572   -1.70974782636580   -0.97760964850699
15
 energy: -25.381799105019 gnorm: 0.141663006257 xtb: 6.3.3 (5b13467)
O        -0.92015083721926    1.95256993866199   -0.37625178784302
H         0.03164863720777    1.87768974187176   -0.32820162513487
H        -1.13647226891303    1.41099207651250   -1.19886858555857
O        -0.77192974279336   -0.06870423909820   -2.29848634984170
H         0.00018223258833   -0.36816849366359   -1.85939824475349
H        -1.16874131694295   -0.83005522869394   -2.71443960512418
O         1.65914340879376   -0.55937768481122    1.37720993305786
H         1.08601748742948    0.21248773921193    1.45153146155629
H         1.91881578819783   -0.82702143344608    2.23102933127316
O        -0.59165226570084    0.88742679497928    1.97095182672101
H        -1.28421166138946    0.58223115808287    2.62564121013483
H        -1.07152002780456    1.08894948110480    1.13374607104262
O         0.61046077019910   -1.97424336596895   -0.83645999532359
H         0.27598837493142   -1.83772287988602   -0.01427203968261
H         1.54578657070312   -1.66752697988462   -0.78425377951273
15
 energy: -25.380783039318 gnorm: 0.106838825622 xtb: 6.3.3 (5b13467)
O        -0.87672225987941    1.94337126006173   -0.42331313193211
H         0.03914010337354    1.72173403960935   -0.21824089665314
H        -1.13676298419672    1.46314652241037   -1.17809019339512
O        -0.77185432689754   -0.05552043386672   -2.37134018756529
H        -0.00443907478675   -0.36218492386314   -1.79922265338965
H        -1.13637642047266   -0.83687003436386   -2.79951849935361
O         1.71567753222641   -0.48276059455526    1.35854210961545
H         1.00903390558463    0.21037807061001    1.38409056100241
H         2.04206223973225   -0.76572431858799    2.22227198203018
O        -0.62265466393881    0.81674394534663    2.01646350415079
H        -1.27220816877391    0.59383589720707    2.67597550211232
H        -1.07825675045605    1.13739362789769    1.23130969127619
O         0.58212454927937   -1.97303302554218   -0.86248895654169
H         0.12013389359215   -1.89533628982789    0.06603774454481
H         1.45237513723318   -1.66903458484057   -0.56571560631033
15
 energy: -25.386134159749 gnorm: 0.096874935626 xtb: 6.3.3 (5b13467)
O        -0.83127173504125    1.94888015513902   -0.43986301791258
H         0.04239570008828    1.58647646939528   -0.17044078909379
H        -1.13346786219337    1.44003344701402   -1.26191431042597
O        -0.75388346924395   -0.03693245390424   -2.42758952635329
H        -0.12399468714631   -0.41385272394907   -1.83226867395715
H        -1.07744251149205   -0.82560568716657   -2.86005664728911
O         1.77468765407794   -0.41266412578797    1.29652993769493
H         0.99603243928775    0.10349449249366    1.48457989524850
H         2.08606904485579   -0.60586818202864    2.22290730138453
O        -0.64351893103913    0.73529755790337    2.06543366328739
H        -1.29461464194501    0.60083198940108    2.73553681065315
H        -1.10047521745210    1.24827036101635    1.32146628674668
O         0.55153951819362   -1.94492320811733   -0.80179989826663
H        -0.03500793406258   -2.01225363670145   -0.08190894692659
H         1.39128928628327   -1.68760954011600   -0.43839831925650
15
 energy: -25.381673088721 gnorm: 0.131182262620 xtb: 6.3.3 (5b13467)
O        -0.79441881645568    1.92659932104948   -0.45990921138311
H         0.00361455852545    1.50584321589654   -0.22625139467243
H        -1.03649538985027    1.47424398729403   -1.23676765704518
O        -0.74270598742516   -0.02735485699683   -2.48234391295647
H        -0.16360630521871   -0.48821372031412   -1.80834261666569
H        -1.07282446669549   -0.78416916957240   -2.97873079338174
O         1.83272009757999   -0.34480168463274    1.26983054409644
H         0.93952148610651    0.00202650780831    1.55060161965114
H         2.16920200530394   -0.46399561566175    2.11421844255383
O        -0.67853121617776    0.67086718627369    2.08387885533863
H        -1.34661308964311    0.61519718781679    2.83046557712743
H        -1.04321090438777    1.29105686701583    1.48819629838996
O         0.51952311701565   -1.91450775965844   -0.76633681854468
H        -0.21842042279330   -2.12211053268522   -0.14773757557741
H         1.36348532162875   -1.68053571581395   -0.27578956591769
15
 energy: -25.381478434332 gnorm: 0.139970410978 xtb: 6.3.3 (5b13467)
O        -0.76802843133025    1.91066455821977   -0.45604801906810
H         0.08934837483627    1.42880470657137   -0.25136986454601
H        -1.00590163323238    1.48042970765889   -1.33009804340611
O        -0.71672349575891   -0.05122055377261   -2.51302899363434
H        -0.22615511545151   -0.52595135636067   -1.83661757492766
H        -1.09293443734254   -0.67927660602282   -3.13062266663016
O         1.83563802749275   -0.26393105079330    1.25514827600706
H         0.91694514982124   -0.10941026801143    1.48578929641438
H         2.42062246802965   -0.37754090064722    2.08154815018425
O        -0.73627172979279    0.59319736789290    2.14069648398346
H        -1.31053690708823    0.61775649150875    2.85441381163680
H        -0.97885133700969    1.39118123538966    1.55267955691916
O         0.49888726888264   -1.87331441409878   -0.72875099359838
H        -0.28569906816676   -2.22012248918743   -0.22218735972096
H         1.16015408431634   -1.67490163136125   -0.10525429048613
15
 energy: -25.381407287398 gnorm: 0.129400297049 xtb: 6.3.3 (5b13467)
O        -0.71544789093333    1.85030485688975   -0.46867411758242
H         0.10169742545287    1.45277883585603   -0.28066326524030
H        -0.98729885832022    1.55946434331008   -1.33176842970302
O        -0.70214920345905   -0.05685330122593   -2.54353368998523
H        -0.26008448511983   -0.64161257554013   -1.89018444723884
H        -1.08395224142648   -0.58379102419261   -3.25090174020852
O         1.86341234468646   -0.20644219523833    1.24915910934764
H         0.93371580911365   -0.17221607872270    1.51956451632850
H         2.49883307230621   -0.25009252962541    1.92280151023126
O        -0.78591208218014    0.54768374296166    2.15362837934199
H        -1.34740520472227    0.62408452686546    2.97043842749453
H        -0.86547629067620    1.33694239984705    1.66448198456823
O         0.44380508161899   -1.84997579792941   -0.69778621352093
H        -0.27533403177943   -2.26992728520928   -0.31134492981994
H         1.01146848596355   -1.60195187914535    0.10674975631202
15
 energy: -25.382567934778 gnorm: 0.097744496818 xtb: 6.3.3 (5b13467)
O        -0.68556547291881    1.81658499583670   -0.46121531968586
H         0.21273481609086    1.42161613639372   -0.32987436397971
H        -0.95162066040613    1.57818538008003   -1.36364494727983
O        -0.68958047328459   -0.05180779307368   -2.56532154060572
H        -0.31062411196025   -0.77591100640179   -2.01707231426270
H        -1.03839611009023   -0.50775954076891   -3.32889741552303
O         1.87244600186239   -0.16140872804911    1.18076461589672
H         1.01352248431647   -0.17733174474742    1.69768181529873
H         2.53291483754322   -0.12078541782980    1.89307324953020
O        -0.83212023407360    0.47673754852018    2.19955587010577
H        -1.33658804110744    0.65417556337749    3.00003836293446
H        -0.79589412284827    1.33022762462909    1.69641564743066
O         0.42472538390020   -1.81421846780754   -0.63387801749726
H        -0.38441847700329   -2.39097104562026   -0.38682002921002
H         0.83974318976739   -1.48245101684618    0.14982884880788
15
 energy: -25.381497327944 gnorm: 0.097479946955 xtb: 6.3.3 (5b13467)
O        -0.63690842449018    1.78675369034859   -0.44064882368785
H         0.24813092303814    1.40272659786855   -0.42438486693956
H        -0.89153289481249    1.55486519578437   -1.35651406355461
O        -0.67815764680974   -0.06885211553821   -2.58867525815878
H        -0.33171249803746   -0.81869390154469   -2.10613022255009
H        -1.00085403301757   -0.41337188930675   -3.42667134798073
O         1.84929220470310   -0.12795601070615    1.16358522290762
H         1.13321921000696   -0.12313388871397    1.76745867602947
H         2.59401282206064    0.02052924962970    1.79970537715219
O        -0.86113094568543    0.42338505275090    2.24774934877829
H        -1.33627741858149    0.68151289538405    3.01340183475428
H        -0.75603062743435    1.22559692661856    1.70448907004751
O         0.35917421090915   -1.81359822608478   -0.59294183500341
H        -0.33946986904057   -2.38966053030810   -0.43251619666051
H         0.69242284307628   -1.34676490642481    0.19524869634629
15
 energy: -25.381122091334 gnorm: 0.111472175782 xtb: 6.3.3 (5b13467)
O        -0.57231268265570    1.75417938288820   -0.43863915771180
H         0.30027096363003    1.38061718383935   -0.44338526574515
H        -0.89114350168751    1.52227046596914   -1.29844255177942
O        -0.67719964591585   -0.08121402475148   -2.62772392178967
H        -0.30346429395597   -0.85664181631177   -2.12248757974840
H        -0.95377239073607   -0.31367330935569   -3.51420995718221
O         1.85503690405471   -0.08727978504426    1.18475189817349
H         1.07933298969460   -0.04374050846386    1.83024100054296
H         2.65741496725159    0.13149089490104    1.59084171572793
O        -0.86049120306884    0.36941125690785    2.28848896203510
H        -1.38320787101910    0.73597397892692    3.07130130813736
H        -0.76083764105578    1.07810811431565    1.66138575418689
O         0.32711608316441   -1.80191242355335   -0.59662297402803
H        -0.38004283875837   -2.42760736803757   -0.34205144246169
H         0.48784377904348   -1.22700687444636    0.21615251945687
15
 energy: -25.377960347792 gnorm: 0.149184074569 xtb: 6.3.3 (5b13467)
O        -0.50367880258314    1.72793517848175   -0.42519490313631
H         0.41647932837064    1.33333454382300   -0.42334171603317
H        -0.94929566925975    1.45240430767662   -1.26970970006992
O        -0.67541054168947   -0.08419337281537   -2.65207905000482
H        -0.30452454443600   -0.82672952086369   -2.20618068610647
H        -0.87047261888452   -0.29314668851334   -3.56208923399205
O         1.81131643128967   -0.05449373400306    1.20596877662541
H         1.15602342466305    0.06683095543971    1.86004405558330
H         2.73396246847662    0.26241821592142    1.44300231789284
O        -0.85793839672780    0.32662187132349    2.36407765369376
H        -1.36177379137049    0.74852095306259    3.00003927186226
H        -0.81733358464000    0.92775589721936    1.55270416994318
O         0.27207676467539   -1.78335908403854   -0.58621531298850
H        -0.37617383585517   -2.42922980048875   -0.23159074667851
H         0.32863515191301   -1.17967698754895    0.10127266559361
15
 energy: -25.378855139321 gnorm: 0.139879464879 xtb: 6.3.3 (5b13467)
O        -0.42803556476441    1.68768292066376   -0.40808472635930
H         0.41148056075864    1.31073579084263   -0.44342307638530
H        -0.89575058067316    1.36377619281604   -1.15386334043686
O        -0.68908697874921   -0.05380064421406   -2.67908767737687
H        -0.26922179268093   -0.85722894828731   -2.24870276340191
H        -0.76323502297564   -0.32526887031887   -3.60750162196610
O         1.79600252310836   -0.02206428150326    1.18800850651489
H         1.25523733546081    0.21300523227417    1.99080410665809
H         2.62891720015167    0.37126512142836    1.35987734401719
O        -0.82467261100450    0.29186955136217    2.38226419016621
H        -1.40677804469809    0.82433791154729    2.99399346495242
H        -0.90996257567428    0.70533547877509    1.54196628910109
O         0.18796188766992   -1.80136099420655   -0.58855404775470
H        -0.35077486868588   -2.43495673077050   -0.17914997662742
H         0.27239828854370   -0.98778656571343    0.05819186121667
15
 energy: -25.378691636486 gnorm: 0.134015029398 xtb: 6.3.3 (5b13467)
O        -0.37864324324106    1.65787712323242   -0.35805946110493
H         0.53241998632420    1.23732954823837   -0.46958507572660
H        -0.85639595105742    1.23516860329673   -1.11960639480659
O        -0.68941004621366   -0.06153778829445   -2.71398392478640
H        -0.28179361896823   -0.77225730183169   -2.24472266455731
H        -0.66907945893661   -0.31071448641760   -3.62510168606630
O         1.75082055885945    0.02614015948901    1.19197038779082
H         1.35424188894358    0.29963126503535    2.03354708483907
H         2.60247613528158    0.48185801819276    1.25980108920020
O        -0.80322732907264    0.27298109519586    2.42034488754801
H        -1.39331945265074    0.84518412850896    2.92614168371758
H        -0.99348662796692    0.51124758041346    1.46761115352958
O         0.10978491972207   -1.75945393441302   -0.58714148271478
H        -0.35743115845718   -2.46744189575386   -0.05885228879535
H         0.24604848017778   -1.01150624893108   -0.09136854481063
15
 energy: -25.380848323467 gnorm: 0.100553917007 xtb: 6.3.3 (5b13467)
O        -0.31200084507954    1.57711547352077   -0.33389986629899
H         0.56400883823917    1.25803199025351   -0.41865573589105
H        -0.80510858205329    1.17637738906001   -1.03707362657685
O        -0.69424551950167   -0.05683339556941   -2.74882094292994
H        -0.28270578892008   -0.74332827427538   -2.16018602607437
H        -0.58152180979728   -0.29081965296633   -3.68583957328417
O         1.72642806695800    0.09956093862416    1.21683305191352
H         1.32199300778663    0.31992982446131    2.04182147001249
H         2.59377618022614    0.55360250061355    1.06878185550834
O        -0.79575939385405    0.26916479777849    2.42273893292923
H        -1.36817197755061    0.85288499984082    2.87737184530960
H        -1.01436854766540    0.30919145478644    1.49661606341014
O         0.01032743402099   -1.77093537945287   -0.62483053237999
H        -0.29417252586368   -2.36468480992172    0.04544581315454
H         0.26824377918992   -0.95095199794010   -0.06598181554895
15
 energy: -25.377650513400 gnorm: 0.112185607795 xtb: 6.3.3 (5b13467)
O        -0.26758529277217    1.49817456453585   -0.29280244412324
H         0.67705007719740    1.25349905170481   -0.35479439969762
H        -0.76911951242469    1.11176010444121   -1.03458321303097
O        -0.69437223498956   -0.04843452822511   -2.77530597777709
H        -0.34350104153109   -0.70084457305091   -2.17185011745198
H        -0.47343327813687   -0.30581837275158   -3.66040708665814
O         1.72099149606413    0.16144450586694    1.19460499261625
H         1.28718922463180    0.37927781711288    2.07444238472601
H         2.48988630576092    0.61228415921594    0.99218537042042
O        -0.77463150385547    0.23986739756437    2.42645586868451
H        -1.39598473627774    0.92752939249084    2.84776950295399
H        -1.02305322439480    0.17381268678606    1.49704469815319
O        -0.08010981283151   -1.73381506785829   -0.62422186370006
H        -0.25985641275368   -2.31756579466162    0.12028611685570
H         0.33461900413209   -1.01035891961270   -0.13463320558042
15
 energy: -25.378894710934 gnorm: 0.123099138594 xtb: 6.3.3 (5b13467)
O        -0.24028769475944    1.41639712955061   -0.24409433084921
H         0.71756333990799    1.24314542365432   -0.31436675986316
H        -0.63963901361252    1.06133664441266   -1.05235511073610
O        -0.69767276711543   -0.02038923765941   -2.79792671525336
H        -0.42170611924930   -0.72206228768100   -2.17930587363841
H        -0.35928563579973   -0.34228768591865   -3.64267765139454
O         1.67399500925589    0.17952721286825    1.16609641476133
H         1.33692846242687    0.46707422194081    1.98392678138411
H         2.47045528168625    0.77868922326263    1.01614998436313
O        -0.77953882107844    0.22898400444430    2.45004927396006
H        -1.32323921563279    0.89734597143975    2.72929858901722
H        -1.01145438941843    0.09579068592433    1.51005200998876
O        -0.15500603019369   -1.69000814211027   -0.59101293864386
H        -0.26313906895599   -2.35143766788766    0.13091832687902
H         0.42850929288143   -0.99311576384404   -0.22369666812777
15
 energy: -25.376709298779 gnorm: 0.118665441818 xtb: 6.3.3 (5b13467)
O        -0.22200130665656    1.33837074723725   -0.21002793102392
H         0.70616361579736    1.22640738919270   -0.25871667139638
H        -0.50939890406925    1.03239406566123   -1.06735575093967
O        -0.67925521854902   -0.00944759963985   -2.82140105965370
H        -0.58225787386419   -0.72906844346232   -2.15867811366809
H        -0.26940143430098   -0.33521906025364   -3.63130896622109
O         1.69170196023814    0.21207093778779    1.11244340662610
H         1.25613121882616    0.52222665993471    1.95694789925018
H         2.37377976118222    0.85812859246600    1.05215528752355
O        -0.77198192506120    0.18625520054042    2.45605005096300
H        -1.33806131543860    0.99377440553700    2.67762495101680
H        -0.94693186276398    0.04298236956691    1.53153661400356
O        -0.22217731031210   -1.64678056203029   -0.53724446820653
H        -0.26732937380413   -2.32477697186700    0.08324347571311
H         0.53311231434354   -1.01620633314426   -0.29433579063664
15
 energy: -25.379471440762 gnorm: 0.103932408104 xtb: 6.3.3 (5b13467)
O        -0.23405570272521    1.27033805179541   -0.19625960487733
H         0.77012405719068    1.21604844524203   -0.14354779348835
H        -0.46245034921784    1.01788955423941   -1.12790718029702
O        -0.65203114677913   -0.01200611956965   -2.83205232871260
H        -0.76350726351385   -0.70005666774306   -2.17733015736206
H        -0.20129384719624   -0.32064087144061   -3.60445954785474
O         1.72728191198923    0.25959386000965    1.10562923935274
H         1.08417923010676    0.42580269505516    1.81578219444002
H         2.39005421789727    0.94734615246159    1.02910980452177
O        -0.79065231016665    0.17286770133095    2.47554948022167
H        -1.26313539860215    0.99443777010082    2.60480781434868
H        -0.84626850816924   -0.00683244483068    1.51339438554439
O        -0.25751242587280   -1.56947283331140   -0.51516159205530
H        -0.25529356082815   -2.34348034289686    0.12230125484521
H         0.51642057671996   -1.12327328445246   -0.29257298476901
15
 energy: -25.374277713845 gnorm: 0.117946761584 xtb: 6.3.3 (5b13467)
O        -0.24075336971139    1.21632377581881   -0.21633344020000
H         0.66770197248735    1.19241598031851   -0.05039139730083
H        -0.42097573652604    1.02827348808785   -1.11036712624718
O        -0.63243263405567    0.01491898283450   -2.83134701235185
H        -0.92431687339609   -0.71787832536065   -2.22792036598157
H        -0.11976898194754   -0.37698221813016   -3.56499003990483
O         1.77865426202754    0.27566935538904    1.09705709650215
H         0.98695315582013    0.34734926014886    1.65980560217410
H         2.38933221721270    1.06684402260345    1.10251481830790
O        -0.79610002501833    0.15498060025324    2.47334789372622
H        -1.20956526430163    1.00644719042826    2.54293398255431
H        -0.76082842317504   -0.02807028119651    1.52513627284430
O        -0.30435443854084   -1.54013560157783   -0.47707925169057
H        -0.29811012447007   -2.29834665881825    0.08342146098799
H         0.61047512244054   -1.11455719726614   -0.25232460448488
15
 energy: -25.373253599659 gnorm: 0.133542328461 xtb: 6.3.3 (5b13467)
O        -0.30636185646072    1.19543169763157   -0.21498535714802
H         0.67359171604331    1.14136011820493   -0.01814194762918
H        -0.38006735241514    1.00633306907070   -1.19953092683987
O        -0.61761746655527    0.02661344174272   -2.82897680147066
H        -1.01208981774002   -0.66666836946179   -2.33417251411703
H        -0.08006107486760   -0.42955464541985   -3.45451947879577
O         1.86632147308074    0.28487993042963    1.07794705906977
H         0.99547816484929    0.32647844313224    1.55769389194386
H         2.26103182120814    1.09357706855875    1.27935445756768
O        -0.78146159864960    0.12926892332866    2.45807259433829
H        -1.17944882030890    1.06409844446471    2.48536180584931
H        -0.74621841955668   -0.05121838755388    1.51099895924160
O        -0.29067815178561   -1.50108400152565   -0.42715969210114
H        -0.39437696623174   -2.31389315592565    0.07468417017040
H         0.52231309155950   -1.11842685330391   -0.27091701705392
15
 energy: -25.372569920697 gnorm: 0.139420958701 xtb: 6.3.3 (5b13467)
O        -0.35626403100849    1.19067415068342   -0.24451363838931
H         0.56601312218876    1.09273694092492   -0.06203007941166
H        -0.37252240930028    0.99612431081740   -1.16098953944959
O        -0.60193606904621    0.04233231995742   -2.83372573259761
H        -1.14023524851850   -0.63314285837025   -2.34041214265121
H         0.01128880033208   -0.46704361731939   -3.39627931916530
O         1.92999567628195    0.29279036016947    1.06618043261733
H         1.09494582104802    0.22355605899157    1.51568984924107
H         2.22164764221834    1.16388179875773    1.48748073356942
O        -0.76327348130380    0.14708454877015    2.42113796330634
H        -1.10857054759129    0.98113150524008    2.45525420318298
H        -0.80982451143445   -0.10101669588717    1.47613771121998
O        -0.31995152347442   -1.48056791184226   -0.39970801766975
H        -0.45916621119550   -2.34041538301494    0.09694913354889
H         0.58310593014785   -1.09253172273765   -0.21889022878397
15
 energy: -25.377630796853 gnorm: 0.125998431100 xtb: 6.3.3 (5b13467)
O        -0.40666743965100    1.20427759829235   -0.26834362545097
H         0.53777242290732    1.06794539150012   -0.05680129336402
H        -0.48090085145001    0.96919532030862   -1.22991740408605
O        -0.59329188278536    0.03194627812899   -2.83997329413533
H        -1.19311336497283   -0.52043648506159   -2.36904300379380
H         0.07071161671617   -0.47107857369091   -3.29737631624126
O         1.98698112947970    0.36180589456465    1.08529001390559
H         1.15520038910158   -0.01604317370382    1.53234893283372
H         2.26161174060154    1.09975994813351    1.59908628685013
O        -0.71173167413293    0.12424487189458    2.35729711445546
H        -1.11459189577794    1.05828856415554    2.44605316200850
H        -0.93022532729027   -0.14639679404867    1.45433177670313
O        -0.34370044318024   -1.47593685752871   -0.36850502600356
H        -0.43863978143756   -2.24861236735374    0.08993363207035
H         0.54678736632670   -1.18543072609362   -0.14128864093528
15
 energy: -25.379310021842 gnorm: 0.095220381188 xtb: 6.3.3 (5b13467)
O        -0.44664595838407    1.22730684828157   -0.30967060545739
H         0.47939434289749    1.06463457059155   -0.05845875531258
H        -0.60617924732091    0.96594183037782   -1.21867103904852
O        -0.58497130611365    0.05581445974350   -2.85693531810825
H        -1.22687113722886   -0.49745072573284   -2.37660639286079
H         0.11431846404490   -0.52710081852497   -3.17651005244387
O         1.99603026701777    0.39435679214891    1.11354394125685
H         1.36173107086404   -0.14433750822262    1.54559007620765
H         2.31256952009158    1.06650656427115    1.72936385713822
O        -0.66914126962572    0.12853075300282    2.28145614988316
H        -1.04584797280581    0.97663616059468    2.41742415742690
H        -1.05693830835548   -0.15144521210671    1.44173130684444
O        -0.35458620120377   -1.45823418118914   -0.34771290337002
H        -0.48524553523761   -2.33673414089456    0.17000246900248
H         0.53129910312222   -1.21519207198564   -0.10621547857572
15
 energy: -25.376812841249 gnorm: 0.095989051329 xtb: 6.3.3 (5b13467)
O        -0.50014030056121    1.26941980689683   -0.32474316640475
H         0.40281408791384    1.06838036154439   -0.11749652966117
H        -0.64804434600270    0.96933294674218   -1.22548615308994
O        -0.58282796357275    0.07097811245551   -2.88106705284445
H        -1.22060514076829   -0.47939739196915   -2.39910833614222
H         0.13314290208898   -0.56589948711670   -3.02161911607123
O         2.02054151340041    0.42565814558921    1.11973263109745
H         1.49774055552899   -0.23463180816787    1.64821227152848
H         2.33346713622319    1.00582856888060    1.87139508537963
O        -0.62627366282963    0.10510845934736    2.20082487279532
H        -0.98051927470810    0.98032945160327    2.40525874985040
H        -1.13896416774949   -0.14918091479171    1.40894198234478
O        -0.36758433030988   -1.50668386698645   -0.29658010067663
H        -0.56218299324101   -2.28959336200557    0.15309002143345
H         0.54926309377280   -1.17053117226139   -0.10549080646403
15
 energy: -25.374131479050 gnorm: 0.118222187725 xtb: 6.3.3 (5b13467)
O        -0.57016705566423    1.32539843337876   -0.33145030193160
H         0.37622618515283    1.08172869640838   -0.14686878249603
H        -0.66166804077699    0.99467840850604   -1.26469717091415
O        -0.58059768267525    0.04859958423233   -2.89824918721393
H        -1.25053889476314   -0.42144637359650   -2.42123163837687
H         0.17571204325596   -0.52759582991319   -2.89725979809065
O         2.04372821288731    0.43889649176298    1.18277527770744
H         1.60720433907888   -0.26356533817923    1.65562730098221
H         2.35130179278374    0.96076644235969    1.86436199062016
O        -0.60526116540903    0.07057989926346    2.12183122701821
H        -0.86770859248073    0.99610030186007    2.40661141925920
H        -1.13828662587778   -0.13734498799003    1.36541139658629