
                                 *****************
                                 * O   R   C   A *
                                 *****************

           --- An Ab Initio, DFT and Semiempirical electronic structure package ---

                  #######################################################
                  #                        -***-                        #
                  #          Department of theory and spectroscopy      #
                  #               Directorship: Frank Neese             #
                  #        Max Planck Institute fuer Kohlenforschung    #
                  #                Kaiser Wilhelm Platz 1               #
                  #                 D-45470 Muelheim/Ruhr               #
                  #                      Germany                        #
                  #                                                     #
                  #                  All rights reserved                #
                  #                        -***-                        #
                  #######################################################


                         Program Version 4.2.0 -  RELEASE  -


 With contributions from (in alphabetic order):
   Daniel Aravena         : Magnetic Suceptibility
   Michael Atanasov       : Ab Initio Ligand Field Theory (pilot matlab implementation)
   Alexander A. Auer      : GIAO ZORA, VPT2
   Ute Becker             : Parallelization
   Giovanni Bistoni       : ED, misc. LED, open-shell LED, HFLED
   Martin Brehm           : Molecular dynamics
   Dmytro Bykov           : SCF Hessian
   Vijay G. Chilkuri      : MRCI spin determinant printing, contributions to CSF-ICE
   Dipayan Datta          : RHF DLPNO-CCSD density
   Achintya Kumar Dutta   : EOM-CC, STEOM-CC
   Dmitry Ganyushin       : Spin-Orbit,Spin-Spin,Magnetic field MRCI
   Miquel Garcia          : C-PCM Hessian, Gaussian charge scheme
   Yang Guo               : DLPNO-NEVPT2, CIM, IAO-localization
   Andreas Hansen         : Spin unrestricted coupled pair/coupled cluster methods
   Benjamin Helmich-Paris : CASSCF linear response (MC-RPA)
   Lee Huntington         : MR-EOM, pCC
   Robert Izsak           : Overlap fitted RIJCOSX, COSX-SCS-MP3, EOM
   Christian Kollmar      : KDIIS, OOCD, Brueckner-CCSD(T), CCSD density
   Simone Kossmann        : Meta GGA functionals, TD-DFT gradient, OOMP2, MP2 Hessian
   Martin Krupicka        : AUTO-CI
   Lucas Lang             : DCDCAS
   Dagmar Lenk            : GEPOL surface, SMD
   Dimitrios Liakos       : Extrapolation schemes; Compound Job, initial MDCI parallelization
   Dimitrios Manganas     : Further ROCIS development; embedding schemes
   Dimitrios Pantazis     : SARC Basis sets
   Taras Petrenko         : DFT Hessian,TD-DFT gradient, ASA, ECA, R-Raman, ABS, FL, XAS/XES, NRVS
   Peter Pinski           : DLPNO-MP2, DLPNO-MP2 Gradient
   Christoph Reimann      : Effective Core Potentials
   Marius Retegan         : Local ZFS, SOC
   Christoph Riplinger    : Optimizer, TS searches, QM/MM, DLPNO-CCSD(T), (RO)-DLPNO pert. Triples
   Tobias Risthaus        : Range-separated hybrids, TD-DFT gradient, RPA, STAB
   Michael Roemelt        : Original ROCIS implementation
   Masaaki Saitow         : Open-shell DLPNO-CCSD energy and density
   Barbara Sandhoefer     : DKH picture change effects
   Avijit Sen             : IP-ROCIS
   Kantharuban Sivalingam : CASSCF convergence, NEVPT2, FIC-MRCI
   Bernardo de Souza      : ESD, SOC TD-DFT
   Georgi Stoychev        : AutoAux, RI-MP2 NMR
   Willem Van den Heuvel  : Paramagnetic NMR
   Boris Wezisla          : Elementary symmetry handling
   Frank Wennmohs         : Technical directorship


 We gratefully acknowledge several colleagues who have allowed us to
 interface, adapt or use parts of their codes:
   Stefan Grimme, W. Hujo, H. Kruse,             : VdW corrections, initial TS optimization,
                  C. Bannwarth                     DFT functionals, gCP, sTDA/sTD-DF
   Ed Valeev, F. Pavosevic, A. Kumar             : LibInt (2-el integral package), F12 methods
   Garnet Chan, S. Sharma, J. Yang, R. Olivares  : DMRG
   Ulf Ekstrom                                   : XCFun DFT Library
   Mihaly Kallay                                 : mrcc  (arbitrary order and MRCC methods)
   Andreas Klamt, Michael Diedenhofen            : otool_cosmo (COSMO solvation model)
   Jiri Pittner, Ondrej Demel                    : Mk-CCSD
   Frank Weinhold                                : gennbo (NPA and NBO analysis)
   Christopher J. Cramer and Donald G. Truhlar   : smd solvation model
   Lars Goerigk                                  : TD-DFT with DH, B97 family of functionals
   V. Asgeirsson, H. Jonsson                     : NEB implementation
   FAccTs GmbH                                   : IRC, NEB, NEB-TS, Multilevel, MM, QM/MM, CI optimization
   S Lehtola, MJT Oliveira, MAL Marques          : LibXC Library


 Your calculation uses the libint2 library for the computation of 2-el integrals
 For citations please refer to: http://libint.valeyev.net

 Your ORCA version has been built with support for libXC version: 4.2.3
 For citations please refer to: https://tddft.org/programs/libxc/

 This ORCA versions uses:
   CBLAS   interface :  Fast vector & matrix operations
   LAPACKE interface :  Fast linear algebra routines
   SCALAPACK package :  Parallel linear algebra routines


----- Orbital basis set information -----
Your calculation utilizes the basis: def2-TZVP
   F. Weigend and R. Ahlrichs, Phys. Chem. Chem. Phys. 7, 3297 (2005).

================================================================================
                                        WARNINGS
                       Please study these warnings very carefully!
================================================================================


WARNING: The frozen-core approximation for MP2-gradient calculations is turned on by default.

WARNING: Geometry Optimization
  ===> : Switching off AutoStart
         For restart on a previous wavefunction, please use MOREAD

WARNING: Post HF methods need fully converged wavefunctions
  ===> : Setting SCFConvForced true
         You can overwrite this default with %scf ConvForced false 


INFO   : the flag for use of LIBINT has been found!

================================================================================
                                       INPUT FILE
================================================================================
NAME = input.inp
|  1> # Functional Basis-set
|  2> ! MP2 Def2-TZVP
|  3> 
|  4> # Type of calculation
|  5> ! OPT
|  6> 
|  7> # Options
|  8> ! TightSCF
|  9> 
| 10> %pal nprocs 12 end
| 11> 
| 12> %scf maxiter 800 end
| 13> 
| 14> *xyz  0  1
| 15>     O      1.55448395      1.06366445      0.38644146
| 16>     H      2.36615373      1.20499956     -0.10084530
| 17>     H      0.86009146      1.21737032     -0.25420309
| 18>     O     -1.44148097     -1.16827388     -0.50438523
| 19>     H     -1.44576890     -2.05703782     -0.85978939
| 20>     H     -0.86114323     -1.21639532      0.25530174
| 21>     O     -0.49485768      1.22265873     -1.39906161
| 22>     H     -0.87679998      0.37440591     -1.17363073
| 23>     H     -1.24729537      1.80602846     -1.49779932
| 24>     O      0.38185711     -1.11804905      1.51700460
| 25>     H      0.32690325     -0.95398964      2.45843778
| 26>     H      0.87785532     -0.37538187      1.17252952
| 27> *
| 28> 
| 29>                          ****END OF INPUT****
================================================================================

                       *****************************
                       * Geometry Optimization Run *
                       *****************************

Geometry optimization settings:
Update method            Update   .... BFGS
Choice of coordinates    CoordSys .... Z-matrix Internals
Initial Hessian          InHess   .... Almoef's Model

Convergence Tolerances:
Energy Change            TolE     ....  5.0000e-06 Eh
Max. Gradient            TolMAXG  ....  3.0000e-04 Eh/bohr
RMS Gradient             TolRMSG  ....  1.0000e-04 Eh/bohr
Max. Displacement        TolMAXD  ....  4.0000e-03 bohr
RMS Displacement         TolRMSD  ....  2.0000e-03 bohr
Strict Convergence                ....  False
------------------------------------------------------------------------------
                        ORCA OPTIMIZATION COORDINATE SETUP
------------------------------------------------------------------------------

The optimization will be done in new redundant internal coordinates
Making redundant internal coordinates   ...  (new redundants) done
Evaluating the initial hessian          ...  (Almloef) done
Evaluating the coordinates              ...  done
Calculating the B-matrix                .... done
Calculating the G-matrix                .... done
Diagonalizing the G-matrix              .... done
The first mode is                       ....   94
The number of degrees of freedom        ....   30

    -----------------------------------------------------------------
                    Redundant Internal Coordinates


    -----------------------------------------------------------------
         Definition                    Initial Value    Approx d2E/dq
    -----------------------------------------------------------------
      1. B(H   1,O   0)                  0.9572         0.525332   
      2. B(H   2,O   0)                  0.9572         0.525332   
      3. B(H   4,O   3)                  0.9572         0.525332   
      4. B(H   5,O   3)                  0.9572         0.525332   
      5. B(O   6,H   2)                  1.7739         0.026151   
      6. B(H   7,H   2)                  2.1384         0.001465   
      7. B(H   7,O   3)                  1.7739         0.026151   
      8. B(H   7,H   5)                  2.1384         0.001465   
      9. B(H   7,O   6)                  0.9572         0.525332   
     10. B(H   8,O   6)                  0.9572         0.525332   
     11. B(O   9,H   5)                  1.7739         0.026151   
     12. B(H  10,O   9)                  0.9572         0.525332   
     13. B(H  11,H   5)                  2.1384         0.001465   
     14. B(H  11,H   2)                  2.1384         0.001465   
     15. B(H  11,O   0)                  1.7739         0.026151   
     16. B(H  11,O   9)                  0.9572         0.525332   
     17. A(H   1,O   0,H  11)          131.9767         0.207621   
     18. A(H   1,O   0,H   2)          104.5200         0.322920   
     19. A(H   2,O   0,H  11)           98.6356         0.207621   
     20. A(O   6,H   2,H  11)          116.0513         0.114347   
     21. A(H   7,H   2,H  11)           90.0000         0.099681   
     22. A(O   0,H   2,H   7)          144.4592         0.138984   
     23. A(O   6,H   2,H   7)           26.2668         0.114347   
     24. A(O   0,H   2,O   6)          170.5954         0.207621   
     25. A(O   0,H   2,H  11)           55.0977         0.138984   
     26. A(H   4,O   3,H   7)          131.9772         0.207621   
     27. A(H   4,O   3,H   5)          104.5200         0.322920   
     28. A(H   5,O   3,H   7)           98.6356         0.207621   
     29. A(O   3,H   5,H  11)          144.4592         0.138984   
     30. A(O   3,H   5,O   9)          170.5954         0.207621   
     31. A(O   9,H   5,H  11)           26.2668         0.114347   
     32. A(H   7,H   5,H  11)           90.0000         0.099681   
     33. A(H   7,H   5,O   9)          116.0513         0.114347   
     34. A(O   3,H   5,H   7)           55.0976         0.138984   
     35. A(H   7,O   6,H   8)          104.5200         0.322920   
     36. A(H   2,O   6,H   8)          131.9769         0.207621   
     37. A(H   2,O   6,H   7)           98.6354         0.207621   
     38. A(H   2,H   7,O   3)          116.0512         0.114347   
     39. A(O   3,H   7,O   6)          170.5954         0.207621   
     40. A(H   2,H   7,O   6)           55.0978         0.138984   
     41. A(O   3,H   7,H   5)           26.2667         0.114347   
     42. A(H   2,H   7,H   5)           89.9999         0.099681   
     43. A(H   5,H   7,O   6)          144.4593         0.138984   
     44. A(H   5,O   9,H  11)           98.6354         0.207621   
     45. A(H   5,O   9,H  10)          131.9767         0.207621   
     46. A(H  10,O   9,H  11)          104.5200         0.322920   
     47. A(H   5,H  11,O   9)           55.0979         0.138984   
     48. A(O   0,H  11,O   9)          170.5955         0.207621   
     49. A(O   0,H  11,H   2)           26.2667         0.114347   
     50. A(H   2,H  11,O   9)          144.4594         0.138984   
     51. A(H   2,H  11,H   5)           89.9999         0.099681   
     52. A(O   0,H  11,H   5)          116.0512         0.114347   
     53. D(O   6,H   2,O   0,H   1)    116.8151         0.429907   
     54. D(H  11,H   2,O   0,H   1)    137.5742         0.429907   
     55. D(H   7,H   2,O   0,H   1)    125.1621         0.429907   
     56. D(H   7,H   2,O   0,H  11)    -12.4121         0.429907   
     57. D(O   6,H   2,O   0,H  11)    -20.7591         0.429907   
     58. D(H  11,H   5,O   3,H   4)    125.1626         0.429907   
     59. D(O   9,H   5,O   3,H   4)    116.8155         0.429907   
     60. D(H  11,H   5,O   3,H   7)    -12.4121         0.429907   
     61. D(H   7,H   5,O   3,H   4)    137.5747         0.429907   
     62. D(O   9,H   5,O   3,H   7)    -20.7592         0.429907   
     63. D(H   7,O   6,H   2,H  11)     -7.8861         0.001947   
     64. D(H   8,O   6,H   2,O   0)    129.5307         0.001947   
     65. D(H   8,O   6,H   2,H  11)    110.6524         0.001947   
     66. D(H   8,O   6,H   2,H   7)    118.5386         0.001947   
     67. D(H   7,O   6,H   2,O   0)     10.9922         0.001947   
     68. D(O   6,H   7,O   3,H   5)    -10.9931         0.001947   
     69. D(H   5,H   7,O   3,H   4)   -118.5390         0.001947   
     70. D(O   6,H   7,H   5,O   9)     -6.7691         0.001525   
     71. D(O   6,H   7,H   5,H  11)    -10.2503         0.001525   
     72. D(O   6,H   7,O   3,H   4)   -129.5322         0.001947   
     73. D(O   6,H   7,H   5,O   3)    176.9272         0.001525   
     74. D(H   5,H   7,H   2,H  11)      0.0969         0.001525   
     75. D(H   5,H   7,H   2,O   6)   -172.8225         0.001525   
     76. D(H   5,H   7,H   2,O   0)     10.2501         0.001525   
     77. D(H   2,H   7,O   3,H   4)   -110.6530         0.001947   
     78. D(H   2,H   7,O   3,H   5)      7.8860         0.001947   
     79. D(H   5,H   7,O   6,H   2)     12.4123         0.429907   
     80. D(H   5,H   7,O   6,H   8)   -125.1619         0.429907   
     81. D(O   3,H   7,H   2,O   6)   -176.3036         0.001525   
     82. D(O   3,H   7,H   2,H  11)     -3.3842         0.001525   
     83. D(O   3,H   7,H   5,H  11)    172.8226         0.001525   
     84. D(O   3,H   7,H   2,O   0)      6.7690         0.001525   
     85. D(O   3,H   7,H   5,O   9)    176.3037         0.001525   
     86. D(H   2,H   7,H   5,H  11)     -0.0969         0.001525   
     87. D(O   6,H   7,H   2,H  11)    172.9194         0.001525   
     88. D(H   2,H   7,O   6,H   8)   -137.5742         0.429907   
     89. D(O   3,H   7,O   6,H   8)   -116.8142         0.429907   
     90. D(O   3,H   7,O   6,H   2)     20.7600         0.429907   
     91. D(H   2,H   7,H   5,O   9)      3.3842         0.001525   
     92. D(O   6,H   7,H   2,O   0)   -176.9274         0.001525   
     93. D(H   2,H   7,H   5,O   3)   -172.9195         0.001525   
     94. D(H  11,O   9,H   5,H   7)     -7.8861         0.001947   
     95. D(H  11,O   9,H   5,O   3)     10.9923         0.001947   
     96. D(H  10,O   9,H   5,H   7)    110.6523         0.001947   
     97. D(H  10,O   9,H   5,H  11)    118.5384         0.001947   
     98. D(H  10,O   9,H   5,O   3)    129.5307         0.001947   
     99. D(O   0,H  11,H   5,O   3)      6.7690         0.001525   
    100. D(O   9,H  11,H   5,H   7)    172.9195         0.001525   
    101. D(O   9,H  11,H   5,O   3)   -176.9274         0.001525   
    102. D(H   5,H  11,H   2,O   6)      3.3842         0.001525   
    103. D(H   5,H  11,H   2,O   0)   -172.9195         0.001525   
    104. D(O   0,H  11,H   2,H   7)    172.8226         0.001525   
    105. D(O   0,H  11,H   2,O   6)    176.3037         0.001525   
    106. D(O   9,H  11,H   2,H   7)    -10.2502         0.001525   
    107. D(O   9,H  11,H   2,O   6)     -6.7691         0.001525   
    108. D(O   9,H  11,H   2,O   0)    176.9272         0.001525   
    109. D(H   5,H  11,O   0,H   2)      7.8860         0.001947   
    110. D(H   5,H  11,H   2,H   7)     -0.0969         0.001525   
    111. D(H   5,H  11,O   0,H   1)   -110.6527         0.001947   
    112. D(H   2,H  11,O   0,H   1)   -118.5387         0.001947   
    113. D(O   9,H  11,O   0,H   2)    -10.9932         0.001947   
    114. D(O   0,H  11,H   5,O   9)   -176.3036         0.001525   
    115. D(O   9,H  11,O   0,H   1)   -129.5319         0.001947   
    116. D(H   5,H  11,O   9,H  10)   -137.5740         0.429907   
    117. D(H   2,H  11,O   9,H  10)   -125.1617         0.429907   
    118. D(O   0,H  11,O   9,H   5)     20.7600         0.429907   
    119. D(O   0,H  11,O   9,H  10)   -116.8140         0.429907   
    120. D(H   2,H  11,H   5,H   7)      0.0969         0.001525   
    121. D(H   2,H  11,H   5,O   9)   -172.8225         0.001525   
    122. D(H   2,H  11,O   9,H   5)     12.4123         0.429907   
    123. D(H   2,H  11,H   5,O   3)     10.2501         0.001525   
    124. D(O   0,H  11,H   5,H   7)     -3.3842         0.001525   
    -----------------------------------------------------------------

Number of atoms                         .... 12
Number of degrees of freedom            .... 124

         *************************************************************
         *                GEOMETRY OPTIMIZATION CYCLE   1            *
         *************************************************************
---------------------------------
CARTESIAN COORDINATES (ANGSTROEM)
---------------------------------
  O      1.554484    1.063664    0.386441
  H      2.366154    1.205000   -0.100845
  H      0.860091    1.217370   -0.254203
  O     -1.441481   -1.168274   -0.504385
  H     -1.445769   -2.057038   -0.859789
  H     -0.861143   -1.216395    0.255302
  O     -0.494858    1.222659   -1.399062
  H     -0.876800    0.374406   -1.173631
  H     -1.247295    1.806028   -1.497799
  O      0.381857   -1.118049    1.517005
  H      0.326903   -0.953990    2.458438
  H      0.877855   -0.375382    1.172530

----------------------------
CARTESIAN COORDINATES (A.U.)
----------------------------
  NO LB      ZA    FRAG     MASS         X           Y           Z
   0 O     8.0000    0    15.999    2.937549    2.010035    0.730269
   1 H     1.0000    0     1.008    4.471383    2.277119   -0.190570
   2 H     1.0000    0     1.008    1.625337    2.300497   -0.480374
   3 O     8.0000    0    15.999   -2.724004   -2.207718   -0.953150
   4 H     1.0000    0     1.008   -2.732107   -3.887238   -1.624766
   5 H     1.0000    0     1.008   -1.627325   -2.298654    0.482450
   6 O     8.0000    0    15.999   -0.935145    2.310490   -2.643843
   7 H     1.0000    0     1.008   -1.656912    0.707525   -2.217841
   8 H     1.0000    0     1.008   -2.357047    3.412899   -2.830431
   9 O     8.0000    0    15.999    0.721605   -2.112807    2.866723
  10 H     1.0000    0     1.008    0.617758   -1.802779    4.645774
  11 H     1.0000    0     1.008    1.658906   -0.709369    2.215760

--------------------------------
INTERNAL COORDINATES (ANGSTROEM)
--------------------------------
 O      0   0   0     0.000000000000     0.00000000     0.00000000
 H      1   0   0     0.957199995589     0.00000000     0.00000000
 H      1   2   0     0.957200012581   104.51999991     0.00000000
 O      3   1   2     3.324323239805   115.93730007   128.76452418
 H      4   3   1     0.957200002264   134.21634044   288.29905687
 H      4   3   1     0.957200009321    63.67835478    13.07398061
 O      3   1   2     1.773870392696   170.59540569   116.81510412
 H      7   3   1     0.957200004610    98.63538094    10.99218055
 H      7   3   1     0.957200007621   131.97689779   129.53073983
 O      6   4   3     1.773870328123   170.59540471   344.31588441
 H     10   6   4     0.957200004776   131.97668613   129.53072840
 H     10   6   4     0.957200002775    98.63535664    10.99233786

---------------------------
INTERNAL COORDINATES (A.U.)
---------------------------
 O      0   0   0     0.000000000000     0.00000000     0.00000000
 H      1   0   0     1.808845847054     0.00000000     0.00000000
 H      1   2   0     1.808845879165   104.51999991     0.00000000
 O      3   1   2     6.282060503860   115.93730007   128.76452418
 H      4   3   1     1.808845859667   134.21634044   288.29905687
 H      4   3   1     1.808845873003    63.67835478    13.07398061
 O      3   1   2     3.352129239267   170.59540569   116.81510412
 H      7   3   1     1.808845864100    98.63538094    10.99218055
 H      7   3   1     1.808845869790   131.97689779   129.53073983
 O      6   4   3     3.352129117242   170.59540471   344.31588441
 H     10   6   4     1.808845864415   131.97668613   129.53072840
 H     10   6   4     1.808845860634    98.63535664    10.99233786

---------------------
BASIS SET INFORMATION
---------------------
There are 2 groups of distinct atoms

 Group   1 Type O   : 11s6p2d1f contracted to 5s3p2d1f pattern {62111/411/11/1}
 Group   2 Type H   : 5s1p contracted to 3s1p pattern {311/1}

Atom   0O    basis set group =>   1
Atom   1H    basis set group =>   2
Atom   2H    basis set group =>   2
Atom   3O    basis set group =>   1
Atom   4H    basis set group =>   2
Atom   5H    basis set group =>   2
Atom   6O    basis set group =>   1
Atom   7H    basis set group =>   2
Atom   8H    basis set group =>   2
Atom   9O    basis set group =>   1
Atom  10H    basis set group =>   2
Atom  11H    basis set group =>   2
--------------------------------------------------------------------------
[[60104,1],7]: A high-performance Open MPI point-to-point messaging module
was unable to find any relevant network interfaces:

Module: OpenFabrics (openib)
  Host: smp-n77

Another transport will be used instead, although this may result in
lower performance.

NOTE: You can disable this warning by setting the MCA parameter
btl_base_warn_component_unused to 0.
--------------------------------------------------------------------------
[smp-n77.crc.pitt.edu:26337] [[60104,0],0] ORTE_ERROR_LOG: Out of resource in file ../../dist/orte/util/show_help.c at line 501


           ************************************************************
           *        Program running with 12 parallel MPI-processes    *
           *              working on a common directory               *
           ************************************************************
------------------------------------------------------------------------------
                           ORCA GTO INTEGRAL CALCULATION
------------------------------------------------------------------------------

                         BASIS SET STATISTICS AND STARTUP INFO

 # of primitive gaussian shells          ...  128
 # of primitive gaussian functions       ...  248
 # of contracted shells                  ...   76
 # of contracted basis functions         ...  172
 Highest angular momentum                ...    3
 Maximum contraction depth               ...    6
 Integral package used                   ... LIBINT
 Integral threshhold            Thresh   ...  2.500e-11
 Primitive cut-off              TCut     ...  2.500e-12


------------------------------ INTEGRAL EVALUATION ----------------------------


 * One electron integrals 
 Pre-screening matrix                    ... done
 Shell pair data                         ... done (   0.001 sec)

[smp-n77.crc.pitt.edu:26337] 10 more processes have sent help message help-mpi-btl-base.txt / btl:no-nics
[smp-n77.crc.pitt.edu:26337] Set MCA parameter "orte_base_help_aggregate" to 0 to see all help / error messages
--------------------------------------------------------------------------
[[60195,1],6]: A high-performance Open MPI point-to-point messaging module
was unable to find any relevant network interfaces:

Module: OpenFabrics (openib)
  Host: smp-n77

Another transport will be used instead, although this may result in
lower performance.

NOTE: You can disable this warning by setting the MCA parameter
btl_base_warn_component_unused to 0.
--------------------------------------------------------------------------


           ************************************************************
           *        Program running with 12 parallel MPI-processes    *
           *              working on a common directory               *
           ************************************************************
-------------------------------------------------------------------------------
                                 ORCA SCF
-------------------------------------------------------------------------------

------------
SCF SETTINGS
------------
Hamiltonian:
 Ab initio Hamiltonian  Method          .... Hartree-Fock(GTOs)


General Settings:
 Integral files         IntName         .... input
 Hartree-Fock type      HFTyp           .... RHF
 Total Charge           Charge          ....    0
 Multiplicity           Mult            ....    1
 Number of Electrons    NEL             ....   40
 Basis Dimension        Dim             ....  172
 Nuclear Repulsion      ENuc            ....    142.6144056629 Eh

Convergence Acceleration:
 DIIS                   CNVDIIS         .... on
   Start iteration      DIISMaxIt       ....    12
   Startup error        DIISStart       ....  0.200000
   # of expansion vecs  DIISMaxEq       ....     5
   Bias factor          DIISBfac        ....   1.050
   Max. coefficient     DIISMaxC        ....  10.000
 Newton-Raphson         CNVNR           .... off
 SOSCF                  CNVSOSCF        .... on
   Start iteration      SOSCFMaxIt      ....   150
   Startup grad/error   SOSCFStart      ....  0.003300
 Level Shifting         CNVShift        .... on
   Level shift para.    LevelShift      ....    0.2500
   Turn off err/grad.   ShiftErr        ....    0.0010
 Zerner damping         CNVZerner       .... off
 Static damping         CNVDamp         .... on
   Fraction old density DampFac         ....    0.7000
   Max. Damping (<1)    DampMax         ....    0.9800
   Min. Damping (>=0)   DampMin         ....    0.0000
   Turn off err/grad.   DampErr         ....    0.1000
 Fernandez-Rico         CNVRico         .... off

SCF Procedure:
 Maximum # iterations   MaxIter         ....   800
 SCF integral mode      SCFMode         .... Direct
   Integral package                     .... LIBINT
 Reset frequency        DirectResetFreq ....    20
 Integral Threshold     Thresh          ....  2.500e-11 Eh
 Primitive CutOff       TCut            ....  2.500e-12 Eh

Convergence Tolerance:
 Convergence Check Mode ConvCheckMode   .... Total+1el-Energy
 Convergence forced     ConvForced      .... 1
 Energy Change          TolE            ....  1.000e-08 Eh
 1-El. energy change                    ....  1.000e-05 Eh
 Orbital Gradient       TolG            ....  1.000e-05
 Orbital Rotation angle TolX            ....  1.000e-05
 DIIS Error             TolErr          ....  5.000e-07


Diagonalization of the overlap matrix:
Smallest eigenvalue                        ... 4.353e-03
Time for diagonalization                   ...    0.005 sec
Threshold for overlap eigenvalues          ... 1.000e-08
Number of eigenvalues below threshold      ... 0
Time for construction of square roots      ...    0.002 sec
Total time needed                          ...    0.007 sec

-------------------
DFT GRID GENERATION
-------------------

General Integration Accuracy     IntAcc      ...  4.340
Radial Grid Type                 RadialGrid  ... Gauss-Chebyshev
Angular Grid (max. acc.)         AngularGrid ... Lebedev-110
Angular grid pruning method      GridPruning ... 3 (G Style)
Weight generation scheme         WeightScheme... Becke
Basis function cutoff            BFCut       ...    1.0000e-11
Integration weight cutoff        WCut        ...    1.0000e-14
Grids for H and He will be reduced by one unit

# of grid points (after initial pruning)     ...  13216 (   0.0 sec)
# of grid points (after weights+screening)   ...  12619 (   0.0 sec)
nearest neighbour list constructed           ...    0.0 sec
Grid point re-assignment to atoms done       ...    0.0 sec
Grid point division into batches done        ...    0.0 sec
Reduced shell lists constructed in    0.0 sec

Total number of grid points                  ...    12619
Total number of batches                      ...      204
Average number of points per batch           ...       61
Average number of grid points per atom       ...     1052
Average number of shells per batch           ...    51.72 (68.06%)
Average number of basis functions per batch  ...   113.94 (66.25%)
Average number of large shells per batch     ...    39.22 (75.83%)
Average number of large basis fcns per batch ...    79.56 (69.82%)
Maximum spatial batch extension              ...  11.09, 11.93, 11.70 au
Average spatial batch extension              ...   0.19,  0.19,  0.19 au

Time for grid setup =    0.024 sec

------------------------------
INITIAL GUESS: MODEL POTENTIAL
------------------------------
Loading Hartree-Fock densities                     ... done
Calculating cut-offs                               ... done
Setting up the integral package                    ... done
Initializing the effective Hamiltonian             ... done
Starting the Coulomb interaction                   ... done (   0.0 sec)
Reading the grid                                   ... done
Mapping shells                                     ... done
Starting the XC term evaluation                    ... done (   0.0 sec)
Transforming the Hamiltonian                       ... done (   0.0 sec)
Diagonalizing the Hamiltonian                      ... done (   0.0 sec)
Back transforming the eigenvectors                 ... done (   0.0 sec)
Now organizing SCF variables                       ... done
                      ------------------
                      INITIAL GUESS DONE (   0.1 sec)
                      ------------------
--------------
SCF ITERATIONS
--------------
ITER       Energy         Delta-E        Max-DP      RMS-DP      [F,P]     Damp
               ***  Starting incremental Fock matrix formation  ***
  0   -303.9213389428   0.000000000000 0.04132577  0.00118522  0.3193242 0.7000
  1   -304.0571090352  -0.135770092362 0.02732849  0.00082343  0.2151257 0.7000
                               ***Turning on DIIS***
  2   -304.1295560475  -0.072447012356 0.01605712  0.00046301  0.1627268 0.7000
  3   -304.8141928240  -0.684636776508 0.00777473  0.00021021  0.1209254 0.7000
  4   -304.6783618306   0.135830993395 0.01722807  0.00047358  0.0856706 0.0000
  5   -304.2921836215   0.386178209155 0.00163041  0.00006936  0.0049220 0.0000
                      *** Initiating the SOSCF procedure ***
                           *** Shutting down DIIS ***
                      *** Re-Reading the Fockian *** 
                      *** Removing any level shift *** 
ITER      Energy       Delta-E        Grad      Rot      Max-DP    RMS-DP
  6   -304.27443433   0.0177492899  0.000909  0.000909  0.000908  0.000042
               *** Restarting incremental Fock matrix formation ***
  7   -304.26919694   0.0052373867  0.000354  0.000524  0.000444  0.000018
  8   -304.26920089  -0.0000039475  0.000143  0.000417  0.000333  0.000014
  9   -304.26920181  -0.0000009204  0.000039  0.000027  0.000045  0.000002
 10   -304.26920187  -0.0000000564  0.000009  0.000010  0.000010  0.000000
                  ***Gradient check signals convergence***
              ***Rediagonalizing the Fockian in SOSCF/NRSCF***

               *****************************************************
               *                     SUCCESS                       *
               *           SCF CONVERGED AFTER  11 CYCLES          *
               *****************************************************


----------------
TOTAL SCF ENERGY
----------------

Total Energy       :         -304.26920187 Eh           -8279.58591 eV

Components:
Nuclear Repulsion  :          142.61440566 Eh            3880.73527 eV
Electronic Energy  :         -446.88360753 Eh          -12160.32118 eV
One Electron Energy:         -704.03640410 Eh          -19157.80452 eV
Two Electron Energy:          257.15279656 Eh            6997.48334 eV

Virial components:
Potential Energy   :         -608.44734116 Eh          -16556.69388 eV
Kinetic Energy     :          304.17813929 Eh            8277.10797 eV
Virial Ratio       :            2.00029937


---------------
SCF CONVERGENCE
---------------

  Last Energy change         ...   -2.7259e-09  Tolerance :   1.0000e-08
  Last MAX-Density change    ...    2.7300e-06  Tolerance :   1.0000e-07
  Last RMS-Density change    ...    1.0153e-07  Tolerance :   5.0000e-09
  Last Orbital Gradient      ...    1.5579e-06  Tolerance :   1.0000e-05
  Last Orbital Rotation      ...    1.9997e-06  Tolerance :   1.0000e-05

             **** THE GBW FILE WAS UPDATED (input.gbw) ****
             **** DENSITY FILE WAS UPDATED (input.scfp) ****
             **** ENERGY FILE WAS UPDATED (input.en.tmp) ****
             **** THE GBW FILE WAS UPDATED (input.gbw) ****
             **** DENSITY FILE WAS UPDATED (input.scfp) ****
----------------
ORBITAL ENERGIES
----------------

  NO   OCC          E(Eh)            E(eV) 
   0   2.0000     -20.551850      -559.2443 
   1   2.0000     -20.551841      -559.2440 
   2   2.0000     -20.551841      -559.2440 
   3   2.0000     -20.551832      -559.2438 
   4   2.0000      -1.366140       -37.1746 
   5   2.0000      -1.350054       -36.7368 
   6   2.0000      -1.350053       -36.7368 
   7   2.0000      -1.334452       -36.3123 
   8   2.0000      -0.740468       -20.1492 
   9   2.0000      -0.721560       -19.6346 
  10   2.0000      -0.721560       -19.6346 
  11   2.0000      -0.704094       -19.1594 
  12   2.0000      -0.627405       -17.0726 
  13   2.0000      -0.585259       -15.9257 
  14   2.0000      -0.585259       -15.9257 
  15   2.0000      -0.548344       -14.9212 
  16   2.0000      -0.508482       -13.8365 
  17   2.0000      -0.505587       -13.7577 
  18   2.0000      -0.505587       -13.7577 
  19   2.0000      -0.503762       -13.7081 
  20   0.0000       0.127074         3.4579 
  21   0.0000       0.160296         4.3619 
  22   0.0000       0.160296         4.3619 
  23   0.0000       0.176915         4.8141 
  24   0.0000       0.295694         8.0462 
  25   0.0000       0.324400         8.8274 
  26   0.0000       0.324400         8.8274 
  27   0.0000       0.343116         9.3367 
  28   0.0000       0.453078        12.3289 
  29   0.0000       0.487977        13.2785 
  30   0.0000       0.522792        14.2259 
  31   0.0000       0.522793        14.2259 
  32   0.0000       0.536632        14.6025 
  33   0.0000       0.600015        16.3272 
  34   0.0000       0.600015        16.3272 
  35   0.0000       0.622787        16.9469 
  36   0.0000       0.644916        17.5491 
  37   0.0000       0.644917        17.5491 
  38   0.0000       0.656275        17.8581 
  39   0.0000       0.690090        18.7783 
  40   0.0000       0.742298        20.1990 
  41   0.0000       0.768045        20.8996 
  42   0.0000       0.768045        20.8996 
  43   0.0000       0.792710        21.5707 
  44   0.0000       0.803111        21.8538 
  45   0.0000       0.803112        21.8538 
  46   0.0000       0.815654        22.1951 
  47   0.0000       0.858233        23.3537 
  48   0.0000       0.998483        27.1701 
  49   0.0000       0.998484        27.1701 
  50   0.0000       1.004429        27.3319 
  51   0.0000       1.046528        28.4775 
  52   0.0000       1.360101        37.0102 
  53   0.0000       1.426493        38.8169 
  54   0.0000       1.426494        38.8169 
  55   0.0000       1.430083        38.9145 
  56   0.0000       1.477421        40.2027 
  57   0.0000       1.477421        40.2027 
  58   0.0000       1.487948        40.4891 
  59   0.0000       1.567021        42.6408 
  60   0.0000       1.585508        43.1439 
  61   0.0000       1.623501        44.1777 
  62   0.0000       1.624210        44.1970 
  63   0.0000       1.624210        44.1970 
  64   0.0000       1.820650        49.5424 
  65   0.0000       1.854238        50.4564 
  66   0.0000       1.854239        50.4564 
  67   0.0000       1.867389        50.8142 
  68   0.0000       2.041834        55.5611 
  69   0.0000       2.050482        55.7965 
  70   0.0000       2.056212        55.9524 
  71   0.0000       2.056212        55.9524 
  72   0.0000       2.061597        56.0989 
  73   0.0000       2.143970        58.3404 
  74   0.0000       2.143972        58.3405 
  75   0.0000       2.201303        59.9005 
  76   0.0000       2.258691        61.4621 
  77   0.0000       2.278712        62.0069 
  78   0.0000       2.278713        62.0069 
  79   0.0000       2.303063        62.6695 
  80   0.0000       2.348693        63.9112 
  81   0.0000       2.373538        64.5873 
  82   0.0000       2.373539        64.5873 
  83   0.0000       2.382830        64.8401 
  84   0.0000       2.386976        64.9529 
  85   0.0000       2.511387        68.3383 
  86   0.0000       2.511388        68.3384 
  87   0.0000       2.551398        69.4271 
  88   0.0000       2.570754        69.9538 
  89   0.0000       2.608705        70.9865 
  90   0.0000       2.608706        70.9865 
  91   0.0000       2.618251        71.2462 
  92   0.0000       2.734371        74.4060 
  93   0.0000       2.757149        75.0258 
  94   0.0000       2.757150        75.0259 
  95   0.0000       2.849016        77.5257 
  96   0.0000       2.971097        80.8476 
  97   0.0000       2.971097        80.8477 
  98   0.0000       2.984669        81.2170 
  99   0.0000       3.037968        82.6673 
 100   0.0000       3.037969        82.6673 
 101   0.0000       3.037979        82.6676 
 102   0.0000       3.042018        82.7775 
 103   0.0000       3.070032        83.5398 
 104   0.0000       3.140939        85.4693 
 105   0.0000       3.170414        86.2714 
 106   0.0000       3.170415        86.2714 
 107   0.0000       3.224841        87.7524 
 108   0.0000       3.356911        91.3462 
 109   0.0000       3.460587        94.1674 
 110   0.0000       3.460587        94.1674 
 111   0.0000       3.490219        94.9737 
 112   0.0000       4.029625       109.6517 
 113   0.0000       4.088098       111.2428 
 114   0.0000       4.088098       111.2428 
 115   0.0000       4.148533       112.8873 
 116   0.0000       4.357913       118.5848 
 117   0.0000       4.360948       118.6674 
 118   0.0000       4.380292       119.1938 
 119   0.0000       4.380294       119.1939 
 120   0.0000       5.557389       151.2242 
 121   0.0000       5.558002       151.2409 
 122   0.0000       5.558238       151.2473 
 123   0.0000       5.558238       151.2474 
 124   0.0000       5.632963       153.2807 
 125   0.0000       5.659841       154.0121 
 126   0.0000       5.659841       154.0121 
 127   0.0000       5.688024       154.7790 
 128   0.0000       5.832048       158.6981 
 129   0.0000       5.832048       158.6981 
 130   0.0000       5.832221       158.7028 
 131   0.0000       5.842444       158.9810 
 132   0.0000       5.889677       160.2663 
 133   0.0000       5.911343       160.8558 
 134   0.0000       5.911343       160.8558 
 135   0.0000       5.912899       160.8982 
 136   0.0000       5.929004       161.3364 
 137   0.0000       5.929005       161.3364 
 138   0.0000       5.931987       161.4176 
 139   0.0000       5.941137       161.6665 
 140   0.0000       6.538843       177.9310 
 141   0.0000       6.571420       178.8174 
 142   0.0000       6.571420       178.8174 
 143   0.0000       6.579862       179.0471 
 144   0.0000       6.710834       182.6111 
 145   0.0000       6.734196       183.2468 
 146   0.0000       6.734196       183.2468 
 147   0.0000       6.775354       184.3667 
 148   0.0000       6.858400       186.6266 
 149   0.0000       6.901361       187.7956 
 150   0.0000       6.901361       187.7956 
 151   0.0000       6.904958       187.8934 
 152   0.0000       6.921419       188.3414 
 153   0.0000       6.953195       189.2061 
 154   0.0000       6.953196       189.2061 
 155   0.0000       7.008265       190.7046 
 156   0.0000       7.071944       192.4374 
 157   0.0000       7.096305       193.1003 
 158   0.0000       7.096306       193.1003 
 159   0.0000       7.141837       194.3393 
 160   0.0000       7.410067       201.6382 
 161   0.0000       7.451923       202.7771 
 162   0.0000       7.451923       202.7771 
 163   0.0000       7.468905       203.2392 
 164   0.0000       7.553847       205.5506 
 165   0.0000       7.617560       207.2843 
 166   0.0000       7.617560       207.2844 
 167   0.0000       7.651360       208.2041 
 168   0.0000      44.955701      1223.3068 
 169   0.0000      44.968122      1223.6448 
 170   0.0000      44.987767      1224.1794 
 171   0.0000      44.987768      1224.1794 

                    ********************************
                    * MULLIKEN POPULATION ANALYSIS *
                    ********************************

-----------------------
MULLIKEN ATOMIC CHARGES
-----------------------
   0 O :   -0.757659
   1 H :    0.352084
   2 H :    0.405575
   3 O :   -0.757659
   4 H :    0.352084
   5 H :    0.405575
   6 O :   -0.757659
   7 H :    0.405575
   8 H :    0.352084
   9 O :   -0.757659
  10 H :    0.352084
  11 H :    0.405575
Sum of atomic charges:   -0.0000000

--------------------------------
MULLIKEN REDUCED ORBITAL CHARGES
--------------------------------
  0 O s       :     3.795449  s :     3.795449
      pz      :     1.662842  p :     4.937835
      px      :     1.345166
      py      :     1.929827
      dz2     :     0.002359  d :     0.022854
      dxz     :     0.014940
      dyz     :     0.002034
      dx2y2   :     0.002756
      dxy     :     0.000765
      f0      :     0.000102  f :     0.001522
      f+1     :     0.000091
      f-1     :     0.000051
      f+2     :     0.000631
      f-2     :     0.000120
      f+3     :     0.000357
      f-3     :     0.000171
  1 H s       :     0.601626  s :     0.601626
      pz      :     0.013708  p :     0.046289
      px      :     0.017231
      py      :     0.015351
  2 H s       :     0.538971  s :     0.538971
      pz      :     0.019869  p :     0.055454
      px      :     0.021965
      py      :     0.013620
  3 O s       :     3.795449  s :     3.795449
      pz      :     1.592205  p :     4.937835
      px      :     1.823375
      py      :     1.522254
      dz2     :     0.003040  d :     0.022854
      dxz     :     0.006961
      dyz     :     0.003190
      dx2y2   :     0.008148
      dxy     :     0.001515
      f0      :     0.000139  f :     0.001522
      f+1     :     0.000524
      f-1     :     0.000017
      f+2     :     0.000480
      f-2     :     0.000041
      f+3     :     0.000018
      f-3     :     0.000304
  4 H s       :     0.601626  s :     0.601626
      pz      :     0.013636  p :     0.046289
      px      :     0.013641
      py      :     0.019012
  5 H s       :     0.538971  s :     0.538971
      pz      :     0.024788  p :     0.055454
      px      :     0.021251
      py      :     0.009415
  6 O s       :     3.795449  s :     3.795449
      pz      :     1.938257  p :     4.937834
      px      :     1.592922
      py      :     1.406656
      dz2     :     0.004068  d :     0.022854
      dxz     :     0.002042
      dyz     :     0.001238
      dx2y2   :     0.003429
      dxy     :     0.012076
      f0      :     0.000227  f :     0.001522
      f+1     :     0.000273
      f-1     :     0.000347
      f+2     :     0.000083
      f-2     :     0.000101
      f+3     :     0.000232
      f-3     :     0.000259
  7 H s       :     0.538971  s :     0.538971
      pz      :     0.015099  p :     0.055454
      px      :     0.012589
      py      :     0.027767
  8 H s       :     0.601626  s :     0.601626
      pz      :     0.015255  p :     0.046289
      px      :     0.016691
      py      :     0.014343
  9 O s       :     3.795449  s :     3.795449
      pz      :     1.401363  p :     4.937834
      px      :     1.824131
      py      :     1.712340
      dz2     :     0.009525  d :     0.022854
      dxz     :     0.000706
      dyz     :     0.004282
      dx2y2   :     0.002442
      dxy     :     0.005900
      f0      :     0.000676  f :     0.001522
      f+1     :     0.000078
      f-1     :     0.000080
      f+2     :     0.000039
      f-2     :     0.000218
      f+3     :     0.000359
      f-3     :     0.000072
 10 H s       :     0.601626  s :     0.601626
      pz      :     0.019681  p :     0.046289
      px      :     0.014249
      py      :     0.012359
 11 H s       :     0.538971  s :     0.538971
      pz      :     0.012738  p :     0.055454
      px      :     0.017893
      py      :     0.024823


                     *******************************
                     * LOEWDIN POPULATION ANALYSIS *
                     *******************************

----------------------
LOEWDIN ATOMIC CHARGES
----------------------
   0 O :   -0.300093
   1 H :    0.158473
   2 H :    0.141620
   3 O :   -0.300094
   4 H :    0.158473
   5 H :    0.141620
   6 O :   -0.300093
   7 H :    0.141620
   8 H :    0.158473
   9 O :   -0.300093
  10 H :    0.158473
  11 H :    0.141620

-------------------------------
LOEWDIN REDUCED ORBITAL CHARGES
-------------------------------
  0 O s       :     3.433477  s :     3.433477
      pz      :     1.649489  p :     4.834147
      px      :     1.330179
      py      :     1.854479
      dz2     :     0.001216  d :     0.030251
      dxz     :     0.020398
      dyz     :     0.001617
      dx2y2   :     0.005391
      dxy     :     0.001629
      f0      :     0.000252  f :     0.002219
      f+1     :     0.000367
      f-1     :     0.000022
      f+2     :     0.000880
      f-2     :     0.000220
      f+3     :     0.000376
      f-3     :     0.000101
  1 H s       :     0.676209  s :     0.676209
      pz      :     0.052034  p :     0.165318
      px      :     0.065603
      py      :     0.047681
  2 H s       :     0.662172  s :     0.662172
      pz      :     0.074163  p :     0.196208
      px      :     0.074348
      py      :     0.047698
  3 O s       :     3.433476  s :     3.433476
      pz      :     1.559458  p :     4.834147
      px      :     1.763534
      py      :     1.511155
      dz2     :     0.004157  d :     0.030251
      dxz     :     0.008630
      dyz     :     0.005252
      dx2y2   :     0.011469
      dxy     :     0.000744
      f0      :     0.000229  f :     0.002219
      f+1     :     0.000672
      f-1     :     0.000055
      f+2     :     0.000680
      f-2     :     0.000014
      f+3     :     0.000035
      f-3     :     0.000534
  4 H s       :     0.676209  s :     0.676209
      pz      :     0.041792  p :     0.165318
      px      :     0.041926
      py      :     0.081600
  5 H s       :     0.662172  s :     0.662172
      pz      :     0.089809  p :     0.196208
      px      :     0.074418
      py      :     0.031981
  6 O s       :     3.433477  s :     3.433477
      pz      :     1.859415  p :     4.834147
      px      :     1.587482
      py      :     1.387250
      dz2     :     0.004748  d :     0.030251
      dxz     :     0.002099
      dyz     :     0.001650
      dx2y2   :     0.004769
      dxy     :     0.016986
      f0      :     0.000171  f :     0.002219
      f+1     :     0.000297
      f-1     :     0.000378
      f+2     :     0.000105
      f-2     :     0.000127
      f+3     :     0.000512
      f-3     :     0.000629
  7 H s       :     0.662172  s :     0.662172
      pz      :     0.051055  p :     0.196208
      px      :     0.046728
      py      :     0.098425
  8 H s       :     0.676209  s :     0.676209
      pz      :     0.046875  p :     0.165318
      px      :     0.070463
      py      :     0.047980
  9 O s       :     3.433477  s :     3.433477
      pz      :     1.389971  p :     4.834147
      px      :     1.766469
      py      :     1.677707
      dz2     :     0.015207  d :     0.030251
      dxz     :     0.001820
      dyz     :     0.005053
      dx2y2   :     0.001825
      dxy     :     0.006347
      f0      :     0.001064  f :     0.002219
      f+1     :     0.000048
      f-1     :     0.000260
      f+2     :     0.000080
      f-2     :     0.000310
      f+3     :     0.000437
      f-3     :     0.000019
 10 H s       :     0.676209  s :     0.676209
      pz      :     0.082482  p :     0.165318
      px      :     0.042891
      py      :     0.039945
 11 H s       :     0.662172  s :     0.662172
      pz      :     0.040693  p :     0.196208
      px      :     0.065135
      py      :     0.090380


                      *****************************
                      * MAYER POPULATION ANALYSIS *
                      *****************************

  NA   - Mulliken gross atomic population
  ZA   - Total nuclear charge
  QA   - Mulliken gross atomic charge
  VA   - Mayer's total valence
  BVA  - Mayer's bonded valence
  FA   - Mayer's free valence

  ATOM       NA         ZA         QA         VA         BVA        FA
  0 O      8.7577     8.0000    -0.7577     1.7166     1.7166    -0.0000
  1 H      0.6479     1.0000     0.3521     0.8933     0.8933    -0.0000
  2 H      0.5944     1.0000     0.4056     0.8727     0.8727     0.0000
  3 O      8.7577     8.0000    -0.7577     1.7166     1.7166     0.0000
  4 H      0.6479     1.0000     0.3521     0.8933     0.8933     0.0000
  5 H      0.5944     1.0000     0.4056     0.8727     0.8727     0.0000
  6 O      8.7577     8.0000    -0.7577     1.7166     1.7166     0.0000
  7 H      0.5944     1.0000     0.4056     0.8727     0.8727    -0.0000
  8 H      0.6479     1.0000     0.3521     0.8933     0.8933     0.0000
  9 O      8.7577     8.0000    -0.7577     1.7166     1.7166    -0.0000
 10 H      0.6479     1.0000     0.3521     0.8933     0.8933    -0.0000
 11 H      0.5944     1.0000     0.4056     0.8727     0.8727     0.0000

  Mayer bond orders larger than 0.100000
B(  0-O ,  1-H ) :   0.8850 B(  0-O ,  2-H ) :   0.8091 B(  3-O ,  4-H ) :   0.8850 
B(  3-O ,  5-H ) :   0.8091 B(  6-O ,  7-H ) :   0.8091 B(  6-O ,  8-H ) :   0.8850 
B(  9-O , 10-H ) :   0.8850 B(  9-O , 11-H ) :   0.8091 

-------
TIMINGS
-------

Total SCF time: 0 days 0 hours 0 min 3 sec 

Total time                  ....       3.171 sec
Sum of individual times     ....       2.967 sec  ( 93.6%)

Fock matrix formation       ....       2.792 sec  ( 88.1%)
Diagonalization             ....       0.026 sec  (  0.8%)
Density matrix formation    ....       0.005 sec  (  0.2%)
Population analysis         ....       0.004 sec  (  0.1%)
Initial guess               ....       0.097 sec  (  3.1%)
Orbital Transformation      ....       0.000 sec  (  0.0%)
Orbital Orthonormalization  ....       0.000 sec  (  0.0%)
DIIS solution               ....       0.009 sec  (  0.3%)
SOSCF solution              ....       0.010 sec  (  0.3%)
[smp-n77.crc.pitt.edu:26378] 11 more processes have sent help message help-mpi-btl-base.txt / btl:no-nics
[smp-n77.crc.pitt.edu:26378] Set MCA parameter "orte_base_help_aggregate" to 0 to see all help / error messages
--------------------------------------------------------------------------
[[60186,1],2]: A high-performance Open MPI point-to-point messaging module
was unable to find any relevant network interfaces:

Module: OpenFabrics (openib)
  Host: smp-n77

Another transport will be used instead, although this may result in
lower performance.

NOTE: You can disable this warning by setting the MCA parameter
btl_base_warn_component_unused to 0.
--------------------------------------------------------------------------


           ************************************************************
           *        Program running with 12 parallel MPI-processes    *
           *              working on a common directory               *
           ************************************************************

------------------------------------------------------------------------------
                                ORCA  MP2 
------------------------------------------------------------------------------

Freezing NCore=8 chemical core electrons
MP2 will be done in the AO integral direct mode
The Q1-step will be done using symmetric double matrices
Dimension of the basis                    ...  172
Memory devoted for MP2                    ...  256 MB   
Memory needed for all in one shot         ...   40 MB
Number of MOs that can be treated together...   12      
MP2 density construction                  ... relaxed
The MP2 gradient is requested => amplitudes will be stored on disk
Total number of MOs              ...   16
Number of MOs treated per batch  ...    2 
Number of batches necessary      ...    1 
OPERATORS   0/  0 PASS   0
-----------------------------------------------
 MP2 CORRELATION ENERGY   :     -1.028720886 Eh
-----------------------------------------------


---------------------
MP2 DENSITY FORMATION
---------------------

Completing the external part of the density      ... done
Storing the unrelaxed density                    ... done

Calculating G(D)                                 ... [smp-n77.crc.pitt.edu:26419] 11 more processes have sent help message help-mpi-btl-base.txt / btl:no-nics
[smp-n77.crc.pitt.edu:26419] Set MCA parameter "orte_base_help_aggregate" to 0 to see all help / error messages
done
Completing the Lagrangian                        ... done
Solving the Z-vector equations                   ... 

------------------------------------------------------------------------------
                           ORCA CP-SCF CALCULATION
------------------------------------------------------------------------------

Input orbitals are from        ... input.gbw
Input Perturbation             ... input.pin.tmp
Wavefunction output            ... input.pout.tmp
Perturbation mode              ... Real perturbation (singlet)
Solver                         ... POPLE
Max. number of iterations      ... 128
Convergence tolerance          ... 1.000e-08
Integral handling              ... Direct
Number of perturbations        ... 1
Number of operators            ... 1
Orbital ranges used for CP-SCF:
 Operator 0:  Orbitals   0... 19  to  20...171
Variables per vector in CP-SCF ... 3040
Number of vectors sought       ... 1
     CP-SCF ITERATION   0: 
     CP-SCF ITERATION   1:      0.000390731720
     CP-SCF ITERATION   2:      0.000010236061
     CP-SCF ITERATION   3:      0.000000158573
     CP-SCF ITERATION   4:      0.000000010416
     CP-SCF ITERATION   5:      0.000000000521
                                                 ... done
Finalizing the relaxed density                   ... done
Transforming P to the AO basis                   ... done
Storing the relaxed density                      ... done

------------------------------------
ENERGY WEIGHTED DENSITY FINALIZATION
------------------------------------

Gathering the parts of the W-matrix              ...                                                      done
Forming the Z-density                            ... done
Transforming Z to the AO basis                   ... done
Calculating G(Z)                                 ... done
Finalizing the W-matrix                          ...                                                      done
Transforming W to the AO basis and storing       ... done

                *********************************************
                * UNRELAXED MP2 DENSITY POPULATION ANALYSIS *
                *********************************************

------------------------------------------------------------------------------
                           ORCA POPULATION ANALYSIS
------------------------------------------------------------------------------
Input electron density              ... input.pmp2ur
BaseName (.gbw .S,...)              ... input

                    ********************************
                    * MULLIKEN POPULATION ANALYSIS *
                    ********************************

-----------------------
MULLIKEN ATOMIC CHARGES
-----------------------
   0 O :   -0.751848
   1 H :    0.349922
   2 H :    0.401927
   3 O :   -0.751848
   4 H :    0.349922
   5 H :    0.401926
   6 O :   -0.751848
   7 H :    0.401927
   8 H :    0.349922
   9 O :   -0.751848
  10 H :    0.349922
  11 H :    0.401927
Sum of atomic charges:   -0.0000000

--------------------------------
MULLIKEN REDUCED ORBITAL CHARGES
--------------------------------
  0 O s       :     3.790503  s :     3.790503
      pz      :     1.652072  p :     4.906891
      px      :     1.337563
      py      :     1.917256
      dz2     :     0.007897  d :     0.050326
      dxz     :     0.019986
      dyz     :     0.007705
      dx2y2   :     0.008247
      dxy     :     0.006492
      f0      :     0.000477  f :     0.004128
      f+1     :     0.000490
      f-1     :     0.000417
      f+2     :     0.001000
      f-2     :     0.000502
      f+3     :     0.000712
      f-3     :     0.000531
  1 H s       :     0.602176  s :     0.602176
      pz      :     0.014375  p :     0.047902
      px      :     0.017340
      py      :     0.016187
  2 H s       :     0.541073  s :     0.541073
      pz      :     0.020344  p :     0.057000
      px      :     0.022255
      py      :     0.014400
  3 O s       :     3.790503  s :     3.790503
      pz      :     1.582165  p :     4.906891
      px      :     1.812070
      py      :     1.512656
      dz2     :     0.008610  d :     0.050326
      dxz     :     0.012356
      dyz     :     0.008649
      dx2y2   :     0.013559
      dxy     :     0.007153
      f0      :     0.000510  f :     0.004128
      f+1     :     0.000886
      f-1     :     0.000395
      f+2     :     0.000851
      f-2     :     0.000416
      f+3     :     0.000397
      f-3     :     0.000674
  4 H s       :     0.602176  s :     0.602176
      pz      :     0.014277  p :     0.047902
      px      :     0.014479
      py      :     0.019146
  5 H s       :     0.541074  s :     0.541074
      pz      :     0.025010  p :     0.057000
      px      :     0.021818
      py      :     0.010172
  6 O s       :     3.790503  s :     3.790503
      pz      :     1.926010  p :     4.906890
      px      :     1.582533
      py      :     1.398347
      dz2     :     0.009596  d :     0.050326
      dxz     :     0.007757
      dyz     :     0.006910
      dx2y2   :     0.008885
      dxy     :     0.017178
      f0      :     0.000589  f :     0.004128
      f+1     :     0.000637
      f-1     :     0.000703
      f+2     :     0.000450
      f-2     :     0.000479
      f+3     :     0.000622
      f-3     :     0.000647
  7 H s       :     0.541073  s :     0.541073
      pz      :     0.015894  p :     0.057000
      px      :     0.013254
      py      :     0.027852
  8 H s       :     0.602176  s :     0.602176
      pz      :     0.016097  p :     0.047902
      px      :     0.017067
      py      :     0.014738
  9 O s       :     3.790503  s :     3.790503
      pz      :     1.393153  p :     4.906890
      px      :     1.812168
      py      :     1.701570
      dz2     :     0.014746  d :     0.050326
      dxz     :     0.006395
      dyz     :     0.009729
      dx2y2   :     0.008107
      dxy     :     0.011349
      f0      :     0.001043  f :     0.004128
      f+1     :     0.000454
      f-1     :     0.000469
      f+2     :     0.000408
      f-2     :     0.000587
      f+3     :     0.000725
      f-3     :     0.000444
 10 H s       :     0.602176  s :     0.602176
      pz      :     0.019652  p :     0.047902
      px      :     0.015072
      py      :     0.013178
 11 H s       :     0.541073  s :     0.541073
      pz      :     0.013363  p :     0.057000
      px      :     0.018442
      py      :     0.025195


                     *******************************
                     * LOEWDIN POPULATION ANALYSIS *
                     *******************************

----------------------
LOEWDIN ATOMIC CHARGES
----------------------
   0 O :   -0.297007
   1 H :    0.157258
   2 H :    0.139749
   3 O :   -0.297008
   4 H :    0.157258
   5 H :    0.139749
   6 O :   -0.297007
   7 H :    0.139749
   8 H :    0.157258
   9 O :   -0.297007
  10 H :    0.157258
  11 H :    0.139749

-------------------------------
LOEWDIN REDUCED ORBITAL CHARGES
-------------------------------
  0 O s       :     3.429899  s :     3.429899
      pz      :     1.638840  p :     4.803332
      px      :     1.322343
      py      :     1.842149
      dz2     :     0.006565  d :     0.058753
      dxz     :     0.026390
      dyz     :     0.007282
      dx2y2   :     0.011309
      dxy     :     0.007206
      f0      :     0.000645  f :     0.005023
      f+1     :     0.000794
      f-1     :     0.000391
      f+2     :     0.001332
      f-2     :     0.000619
      f+3     :     0.000764
      f-3     :     0.000477
  1 H s       :     0.674304  s :     0.674304
      pz      :     0.053124  p :     0.168438
      px      :     0.066894
      py      :     0.048420
  2 H s       :     0.661562  s :     0.661562
      pz      :     0.075139  p :     0.198689
      px      :     0.075161
      py      :     0.048390
  3 O s       :     3.429899  s :     3.429899
      pz      :     1.549692  p :     4.803333
      px      :     1.752659
      py      :     1.500982
      dz2     :     0.009744  d :     0.058753
      dxz     :     0.014650
      dyz     :     0.010793
      dx2y2   :     0.017378
      dxy     :     0.006187
      f0      :     0.000619  f :     0.005023
      f+1     :     0.001094
      f-1     :     0.000441
      f+2     :     0.001116
      f-2     :     0.000394
      f+3     :     0.000419
      f-3     :     0.000941
  4 H s       :     0.674304  s :     0.674304
      pz      :     0.042593  p :     0.168438
      px      :     0.042656
      py      :     0.083188
  5 H s       :     0.661562  s :     0.661562
      pz      :     0.090683  p :     0.198689
      px      :     0.075263
      py      :     0.032743
  6 O s       :     3.429899  s :     3.429899
      pz      :     1.847523  p :     4.803332
      px      :     1.576776
      py      :     1.379033
      dz2     :     0.010755  d :     0.058753
      dxz     :     0.007732
      dyz     :     0.007256
      dx2y2   :     0.010170
      dxy     :     0.022839
      f0      :     0.000551  f :     0.005023
      f+1     :     0.000689
      f-1     :     0.000766
      f+2     :     0.000484
      f-2     :     0.000522
      f+3     :     0.000949
      f-3     :     0.001063
  7 H s       :     0.661562  s :     0.661562
      pz      :     0.051757  p :     0.198689
      px      :     0.047599
      py      :     0.099333
  8 H s       :     0.674304  s :     0.674304
      pz      :     0.047593  p :     0.168438
      px      :     0.071889
      py      :     0.048956
  9 O s       :     3.429899  s :     3.429899
      pz      :     1.381207  p :     4.803332
      px      :     1.754801
      py      :     1.667324
      dz2     :     0.021154  d :     0.058753
      dxz     :     0.007378
      dyz     :     0.010501
      dx2y2   :     0.007436
      dxy     :     0.012283
      f0      :     0.001517  f :     0.005023
      f+1     :     0.000435
      f-1     :     0.000668
      f+2     :     0.000457
      f-2     :     0.000707
      f+3     :     0.000843
      f-3     :     0.000395
 10 H s       :     0.674304  s :     0.674304
      pz      :     0.084073  p :     0.168438
      px      :     0.043610
      py      :     0.040754
 11 H s       :     0.661562  s :     0.661562
      pz      :     0.041422  p :     0.198689
      px      :     0.065908
      py      :     0.091359


                      *****************************
                      * MAYER POPULATION ANALYSIS *
                      *****************************

  NA   - Mulliken gross atomic population
  ZA   - Total nuclear charge
  QA   - Mulliken gross atomic charge
  VA   - Mayer's total valence
  BVA  - Mayer's bonded valence
  FA   - Mayer's free valence

  ATOM       NA         ZA         QA         VA         BVA        FA
  0 O      8.7518     8.0000    -0.7518     2.0264     1.6418     0.3846
  1 H      0.6501     1.0000     0.3499     0.8989     0.8533     0.0456
  2 H      0.5981     1.0000     0.4019     0.8793     0.8369     0.0424
  3 O      8.7518     8.0000    -0.7518     2.0264     1.6418     0.3846
  4 H      0.6501     1.0000     0.3499     0.8989     0.8533     0.0456
  5 H      0.5981     1.0000     0.4019     0.8793     0.8369     0.0424
  6 O      8.7518     8.0000    -0.7518     2.0264     1.6418     0.3846
  7 H      0.5981     1.0000     0.4019     0.8793     0.8369     0.0424
  8 H      0.6501     1.0000     0.3499     0.8989     0.8533     0.0456
  9 O      8.7518     8.0000    -0.7518     2.0264     1.6418     0.3846
 10 H      0.6501     1.0000     0.3499     0.8989     0.8533     0.0456
 11 H      0.5981     1.0000     0.4019     0.8793     0.8369     0.0424

  Mayer bond orders larger than 0.100000
B(  0-O ,  1-H ) :   0.8457 B(  0-O ,  2-H ) :   0.7752 B(  3-O ,  4-H ) :   0.8457 
B(  3-O ,  5-H ) :   0.7752 B(  6-O ,  7-H ) :   0.7752 B(  6-O ,  8-H ) :   0.8457 
B(  9-O , 10-H ) :   0.8457 B(  9-O , 11-H ) :   0.7752 


                *******************************************
                * RELAXED MP2 DENSITY POPULATION ANALYSIS *
                *******************************************

------------------------------------------------------------------------------
                           ORCA POPULATION ANALYSIS
------------------------------------------------------------------------------
Input electron density              ... input.pmp2re
BaseName (.gbw .S,...)              ... input

                    ********************************
                    * MULLIKEN POPULATION ANALYSIS *
                    ********************************

-----------------------
MULLIKEN ATOMIC CHARGES
-----------------------
   0 O :   -0.726708
   1 H :    0.343816
   2 H :    0.382892
   3 O :   -0.726708
   4 H :    0.343816
   5 H :    0.382892
   6 O :   -0.726708
   7 H :    0.382892
   8 H :    0.343816
   9 O :   -0.726708
  10 H :    0.343816
  11 H :    0.382892
Sum of atomic charges:   -0.0000000

--------------------------------
MULLIKEN REDUCED ORBITAL CHARGES
--------------------------------
  0 O s       :     3.789770  s :     3.789770
      pz      :     1.644912  p :     4.884406
      px      :     1.332245
      py      :     1.907249
      dz2     :     0.008026  d :     0.048478
      dxz     :     0.018307
      dyz     :     0.007835
      dx2y2   :     0.007882
      dxy     :     0.006427
      f0      :     0.000470  f :     0.004054
      f+1     :     0.000477
      f-1     :     0.000416
      f+2     :     0.000965
      f-2     :     0.000497
      f+3     :     0.000702
      f-3     :     0.000526
  1 H s       :     0.607493  s :     0.607493
      pz      :     0.014818  p :     0.048691
      px      :     0.016677
      py      :     0.017196
  2 H s       :     0.559680  s :     0.559680
      pz      :     0.020346  p :     0.057428
      px      :     0.021953
      py      :     0.015129
  3 O s       :     3.789770  s :     3.789770
      pz      :     1.571590  p :     4.884406
      px      :     1.811256
      py      :     1.501560
      dz2     :     0.008314  d :     0.048478
      dxz     :     0.011788
      dyz     :     0.008318
      dx2y2   :     0.012747
      dxy     :     0.007311
      f0      :     0.000502  f :     0.004054
      f+1     :     0.000864
      f-1     :     0.000394
      f+2     :     0.000825
      f-2     :     0.000415
      f+3     :     0.000397
      f-3     :     0.000657
  4 H s       :     0.607493  s :     0.607493
      pz      :     0.014862  p :     0.048691
      px      :     0.015382
      py      :     0.018447
  5 H s       :     0.559680  s :     0.559680
      pz      :     0.024579  p :     0.057428
      px      :     0.022018
      py      :     0.010831
  6 O s       :     3.789770  s :     3.789770
      pz      :     1.921794  p :     4.884406
      px      :     1.571182
      py      :     1.391430
      dz2     :     0.009328  d :     0.048478
      dxz     :     0.007923
      dyz     :     0.006823
      dx2y2   :     0.008637
      dxy     :     0.015767
      f0      :     0.000585  f :     0.004054
      f+1     :     0.000625
      f-1     :     0.000693
      f+2     :     0.000449
      f-2     :     0.000474
      f+3     :     0.000603
      f-3     :     0.000626
  7 H s       :     0.559680  s :     0.559680
      pz      :     0.016620  p :     0.057428
      px      :     0.013690
      py      :     0.027118
  8 H s       :     0.607493  s :     0.607493
      pz      :     0.017087  p :     0.048691
      px      :     0.016871
      py      :     0.014733
  9 O s       :     3.789770  s :     3.789770
      pz      :     1.385687  p :     4.884406
      px      :     1.799766
      py      :     1.698953
      dz2     :     0.013469  d :     0.048478
      dxz     :     0.006448
      dyz     :     0.009410
      dx2y2   :     0.008152
      dxy     :     0.010999
      f0      :     0.001004  f :     0.004054
      f+1     :     0.000454
      f-1     :     0.000461
      f+2     :     0.000406
      f-2     :     0.000577
      f+3     :     0.000709
      f-3     :     0.000443
 10 H s       :     0.607493  s :     0.607493
      pz      :     0.018638  p :     0.048691
      px      :     0.016072
      py      :     0.013981
 11 H s       :     0.559680  s :     0.559680
      pz      :     0.013761  p :     0.057428
      px      :     0.018699
      py      :     0.024967


                     *******************************
                     * LOEWDIN POPULATION ANALYSIS *
                     *******************************

----------------------
LOEWDIN ATOMIC CHARGES
----------------------
   0 O :   -0.293663
   1 H :    0.159263
   2 H :    0.134400
   3 O :   -0.293663
   4 H :    0.159263
   5 H :    0.134400
   6 O :   -0.293663
   7 H :    0.134400
   8 H :    0.159263
   9 O :   -0.293663
  10 H :    0.159263
  11 H :    0.134400

-------------------------------
LOEWDIN REDUCED ORBITAL CHARGES
-------------------------------
  0 O s       :     3.430390  s :     3.430390
      pz      :     1.637701  p :     4.800211
      px      :     1.327546
      py      :     1.834964
      dz2     :     0.006645  d :     0.058014
      dxz     :     0.025640
      dyz     :     0.007433
      dx2y2   :     0.011093
      dxy     :     0.007203
      f0      :     0.000647  f :     0.005048
      f+1     :     0.000792
      f-1     :     0.000392
      f+2     :     0.001344
      f-2     :     0.000622
      f+3     :     0.000773
      f-3     :     0.000479
  1 H s       :     0.672242  s :     0.672242
      pz      :     0.053508  p :     0.168495
      px      :     0.065826
      py      :     0.049161
  2 H s       :     0.666720  s :     0.666720
      pz      :     0.075020  p :     0.198880
      px      :     0.074665
      py      :     0.049195
  3 O s       :     3.430390  s :     3.430390
      pz      :     1.549336  p :     4.800211
      px      :     1.751426
      py      :     1.499449
      dz2     :     0.009625  d :     0.058014
      dxz     :     0.014504
      dyz     :     0.010586
      dx2y2   :     0.017011
      dxy     :     0.006288
      f0      :     0.000620  f :     0.005048
      f+1     :     0.001108
      f-1     :     0.000440
      f+2     :     0.001124
      f-2     :     0.000394
      f+3     :     0.000419
      f-3     :     0.000943
  4 H s       :     0.672242  s :     0.672242
      pz      :     0.042689  p :     0.168495
      px      :     0.043419
      py      :     0.082387
  5 H s       :     0.666720  s :     0.666720
      pz      :     0.090358  p :     0.198880
      px      :     0.075456
      py      :     0.033066
  6 O s       :     3.430390  s :     3.430390
      pz      :     1.842683  p :     4.800211
      px      :     1.574390
      py      :     1.383138
      dz2     :     0.010694  d :     0.058014
      dxz     :     0.007891
      dyz     :     0.007226
      dx2y2   :     0.010065
      dxy     :     0.022138
      f0      :     0.000555  f :     0.005048
      f+1     :     0.000693
      f-1     :     0.000772
      f+2     :     0.000488
      f-2     :     0.000525
      f+3     :     0.000954
      f-3     :     0.001062
  7 H s       :     0.666720  s :     0.666720
      pz      :     0.052517  p :     0.198880
      px      :     0.047783
      py      :     0.098580
  8 H s       :     0.672242  s :     0.672242
      pz      :     0.048393  p :     0.168495
      px      :     0.071645
      py      :     0.048457
  9 O s       :     3.430390  s :     3.430390
      pz      :     1.383701  p :     4.800210
      px      :     1.749109
      py      :     1.667401
      dz2     :     0.020440  d :     0.058014
      dxz     :     0.007463
      dyz     :     0.010347
      dx2y2   :     0.007513
      dxy     :     0.012251
      f0      :     0.001528  f :     0.005048
      f+1     :     0.000437
      f-1     :     0.000664
      f+2     :     0.000458
      f-2     :     0.000714
      f+3     :     0.000852
      f-3     :     0.000396
 10 H s       :     0.672242  s :     0.672242
      pz      :     0.082830  p :     0.168495
      px      :     0.044230
      py      :     0.041434
 11 H s       :     0.666720  s :     0.666720
      pz      :     0.041478  p :     0.198880
      px      :     0.066302
      py      :     0.091099


                      *****************************
                      * MAYER POPULATION ANALYSIS *
                      *****************************

  NA   - Mulliken gross atomic population
  ZA   - Total nuclear charge
  QA   - Mulliken gross atomic charge
  VA   - Mayer's total valence
  BVA  - Mayer's bonded valence
  FA   - Mayer's free valence

  ATOM       NA         ZA         QA         VA         BVA        FA
  0 O      8.7267     8.0000    -0.7267     2.0532     1.6737     0.3794
  1 H      0.6562     1.0000     0.3438     0.9030     0.8573     0.0457
  2 H      0.6171     1.0000     0.3829     0.9046     0.8628     0.0419
  3 O      8.7267     8.0000    -0.7267     2.0532     1.6737     0.3794
  4 H      0.6562     1.0000     0.3438     0.9030     0.8573     0.0457
  5 H      0.6171     1.0000     0.3829     0.9046     0.8628     0.0419
  6 O      8.7267     8.0000    -0.7267     2.0532     1.6737     0.3794
  7 H      0.6171     1.0000     0.3829     0.9046     0.8628     0.0419
  8 H      0.6562     1.0000     0.3438     0.9030     0.8573     0.0457
  9 O      8.7267     8.0000    -0.7267     2.0532     1.6737     0.3794
 10 H      0.6562     1.0000     0.3438     0.9030     0.8573     0.0457
 11 H      0.6171     1.0000     0.3829     0.9046     0.8628     0.0419

  Mayer bond orders larger than 0.100000
B(  0-O ,  1-H ) :   0.8486 B(  0-O ,  2-H ) :   0.7770 B(  3-O ,  4-H ) :   0.8486 
B(  3-O ,  5-H ) :   0.7770 B(  6-O ,  7-H ) :   0.7770 B(  6-O ,  8-H ) :   0.8486 
B(  9-O , 10-H ) :   0.8486 B(  9-O , 11-H ) :   0.7770 


----------------------------------
MP2 DERIVATIVE INTEGRAL GENERATION
----------------------------------


Input Wavefunction Amplitudes       ... input.mp2tsaa.tmp
Input Correlated Electron Density   ... input.pmp2re
Input Energy Weighted Density       ... input.wmp2.tmp
Input SCF Electron Density          ... input.scfp

One-Electron Terms    ...
                        ... One-Electron Terms done
Prescreening matrices              ... done

Batch handling in the gradient evaluation:
Memory available                      ...  256.0 MB
Memory per occupied orbital in Q2     ...    3.6 MB
Memory per occupied orbital in Q3     ...    0.1 MB
Total memory requirement per |i>      ...    3.7 MB
Max. Number of orbitals possible      ...     69
Number of orbitals treated per batch  ...     16
Number of batches to be done          ...      1
Batch   0: i=    4 ...    19

---------------------------------------
MP2 TOTAL ENERGY:     -305.297922758 Eh
---------------------------------------

-----------------------------------
NORM OF THE MP2 GRADIENT:  0.060350
-----------------------------------

-------------------------   --------------------
FINAL SINGLE POINT ENERGY      -305.297922758381
-------------------------   --------------------

------------------------------------------------------------------------------
                         ORCA GEOMETRY RELAXATION STEP
------------------------------------------------------------------------------

Reading the OPT-File                    .... done
Getting information on internals        .... done
Copying old internal coords+grads       .... done
Making the new internal coordinates     .... (new redundants).... done
Validating the new internal coordinates .... (new redundants).... done
Calculating the B-matrix                .... done
Calculating the G,G- and P matrices     .... done
Transforming gradient to internals      .... done
Projecting the internal gradient        .... done
Number of atoms                         ....  12
Number of internal coordinates          .... 124
Current Energy                          ....  -305.297922758 Eh
Current gradient norm                   ....     0.060349694 Eh/bohr
Maximum allowed component of the step   ....  0.300
Current trust radius                    ....  0.300
Evaluating the initial hessian          ....  (Almloef) done
Projecting the Hessian                  .... done
Forming the augmented Hessian           .... done
Diagonalizing the augmented Hessian     .... done
Last element of RFO vector              ....  0.981466108
Lowest eigenvalues of augmented Hessian:
 -0.004773138  0.016363590  0.016734473  0.032597445  0.033338346
Length of the computed step             ....  0.195254624
The final length of the internal step   ....  0.195254624
Converting the step to cartesian space:
 Initial RMS(Int)=    0.0175343829
Transforming coordinates:
 Iter   0:  RMS(Cart)=    0.0357395822 RMS(Int)=    0.0175186615
 Iter   1:  RMS(Cart)=    0.0000901314 RMS(Int)=    0.0000849700
 Iter   2:  RMS(Cart)=    0.0000011816 RMS(Int)=    0.0000015063
 Iter   3:  RMS(Cart)=    0.0000000138 RMS(Int)=    0.0000000611
done
Storing new coordinates                 .... done

                                .--------------------.
          ----------------------|Geometry convergence|-------------------------
          Item                value                   Tolerance       Converged
          ---------------------------------------------------------------------
          RMS gradient        0.0037731736            0.0001000000      NO
[...]
      py      :     0.053133
  9 O s       :     3.445822  s :     3.445822
      pz      :     1.409089  p :     4.806271
      px      :     1.735846
      py      :     1.661336
      dz2     :     0.020218  d :     0.057903
      dxz     :     0.008014
      dyz     :     0.009827
      dx2y2   :     0.007705
      dxy     :     0.012139
      f0      :     0.001281  f :     0.004833
      f+1     :     0.000620
      f-1     :     0.000670
      f+2     :     0.000434
      f-2     :     0.000614
      f+3     :     0.000825
      f-3     :     0.000389
 10 H s       :     0.675284  s :     0.675284
      pz      :     0.083684  p :     0.167322
      px      :     0.043859
      py      :     0.039779
 11 H s       :     0.651112  s :     0.651112
      pz      :     0.038302  p :     0.191454
      px      :     0.060822
      py      :     0.092330


                      *****************************
                      * MAYER POPULATION ANALYSIS *
                      *****************************

  NA   - Mulliken gross atomic population
  ZA   - Total nuclear charge
  QA   - Mulliken gross atomic charge
  VA   - Mayer's total valence
  BVA  - Mayer's bonded valence
  FA   - Mayer's free valence

  ATOM       NA         ZA         QA         VA         BVA        FA
  0 O      8.7608     8.0000    -0.7608     2.0191     1.6284     0.3907
  1 H      0.6491     1.0000     0.3509     0.8964     0.8501     0.0463
  2 H      0.5901     1.0000     0.4099     0.8736     0.8300     0.0436
  3 O      8.7608     8.0000    -0.7608     2.0191     1.6284     0.3907
  4 H      0.6491     1.0000     0.3509     0.8964     0.8501     0.0463
  5 H      0.5901     1.0000     0.4099     0.8736     0.8300     0.0436
  6 O      8.7608     8.0000    -0.7608     2.0191     1.6284     0.3907
  7 H      0.5901     1.0000     0.4099     0.8736     0.8300     0.0436
  8 H      0.6491     1.0000     0.3509     0.8964     0.8501     0.0463
  9 O      8.7608     8.0000    -0.7608     2.0191     1.6284     0.3907
 10 H      0.6491     1.0000     0.3509     0.8964     0.8501     0.0463
 11 H      0.5901     1.0000     0.4099     0.8736     0.8300     0.0436

  Mayer bond orders larger than 0.100000
B(  0-O ,  1-H ) :   0.8432 B(  0-O ,  2-H ) :   0.7600 B(  3-O ,  4-H ) :   0.8432 
B(  3-O ,  5-H ) :   0.7600 B(  6-O ,  7-H ) :   0.7600 B(  6-O ,  8-H ) :   0.8432 
B(  9-O , 10-H ) :   0.8432 B(  9-O , 11-H ) :   0.7600 


                *******************************************
                * RELAXED MP2 DENSITY POPULATION ANALYSIS *
                *******************************************

------------------------------------------------------------------------------
                           ORCA POPULATION ANALYSIS
------------------------------------------------------------------------------
Input electron density              ... input.pmp2re
BaseName (.gbw .S,...)              ... input

                    ********************************
                    * MULLIKEN POPULATION ANALYSIS *
                    ********************************

-----------------------
MULLIKEN ATOMIC CHARGES
-----------------------
   0 O :   -0.733690
   1 H :    0.345101
   2 H :    0.388589
   3 O :   -0.733690
   4 H :    0.345101
   5 H :    0.388589
   6 O :   -0.733690
   7 H :    0.388589
   8 H :    0.345101
   9 O :   -0.733690
  10 H :    0.345101
  11 H :    0.388589
Sum of atomic charges:   -0.0000000

--------------------------------
MULLIKEN REDUCED ORBITAL CHARGES
--------------------------------
  0 O s       :     3.792473  s :     3.792473
      pz      :     1.640641  p :     4.888813
      px      :     1.335772
      py      :     1.912400
      dz2     :     0.008327  d :     0.048439
      dxz     :     0.017978
      dyz     :     0.007605
      dx2y2   :     0.008455
      dxy     :     0.006074
      f0      :     0.000453  f :     0.003965
      f+1     :     0.000488
      f-1     :     0.000406
      f+2     :     0.000949
      f-2     :     0.000446
      f+3     :     0.000740
      f-3     :     0.000484
  1 H s       :     0.607128  s :     0.607128
      pz      :     0.014334  p :     0.047771
      px      :     0.016739
      py      :     0.016698
  2 H s       :     0.555975  s :     0.555975
      pz      :     0.020253  p :     0.055437
      px      :     0.021278
      py      :     0.013906
  3 O s       :     3.792473  s :     3.792473
      pz      :     1.538120  p :     4.888813
      px      :     1.813297
      py      :     1.537396
      dz2     :     0.007144  d :     0.048439
      dxz     :     0.011698
      dyz     :     0.009968
      dx2y2   :     0.011902
      dxy     :     0.007726
      f0      :     0.000500  f :     0.003965
      f+1     :     0.000799
      f-1     :     0.000394
      f+2     :     0.000885
      f-2     :     0.000415
      f+3     :     0.000397
      f-3     :     0.000575
  4 H s       :     0.607128  s :     0.607128
      pz      :     0.014888  p :     0.047771
      px      :     0.015039
      py      :     0.017845
  5 H s       :     0.555975  s :     0.555975
      pz      :     0.023387  p :     0.055437
      px      :     0.021839
      py      :     0.010211
  6 O s       :     3.792473  s :     3.792473
      pz      :     1.928502  p :     4.888813
      px      :     1.588189
      py      :     1.372121
      dz2     :     0.009343  d :     0.048439
      dxz     :     0.008045
      dyz     :     0.006961
      dx2y2   :     0.007239
      dxy     :     0.016851
      f0      :     0.000550  f :     0.003965
      f+1     :     0.000610
      f-1     :     0.000710
      f+2     :     0.000420
      f-2     :     0.000442
      f+3     :     0.000683
      f-3     :     0.000550
  7 H s       :     0.555974  s :     0.555974
      pz      :     0.015764  p :     0.055437
      px      :     0.013252
      py      :     0.026421
  8 H s       :     0.607128  s :     0.607128
      pz      :     0.016656  p :     0.047771
      px      :     0.016237
      py      :     0.014878
  9 O s       :     3.792473  s :     3.792473
      pz      :     1.413387  p :     4.888813
      px      :     1.781529
      py      :     1.693897
      dz2     :     0.013509  d :     0.048439
      dxz     :     0.006754
      dyz     :     0.009127
      dx2y2   :     0.008254
      dxy     :     0.010795
      f0      :     0.000876  f :     0.003965
      f+1     :     0.000565
      f-1     :     0.000465
      f+2     :     0.000395
      f-2     :     0.000543
      f+3     :     0.000692
      f-3     :     0.000430
 10 H s       :     0.607128  s :     0.607128
      pz      :     0.018365  p :     0.047771
      px      :     0.015771
      py      :     0.013635
 11 H s       :     0.555975  s :     0.555975
      pz      :     0.013021  p :     0.055437
      px      :     0.017298
      py      :     0.025117


                     *******************************
                     * LOEWDIN POPULATION ANALYSIS *
                     *******************************

----------------------
LOEWDIN ATOMIC CHARGES
----------------------
   0 O :   -0.310257
   1 H :    0.159446
   2 H :    0.150811
   3 O :   -0.310257
   4 H :    0.159446
   5 H :    0.150811
   6 O :   -0.310257
   7 H :    0.150811
   8 H :    0.159446
   9 O :   -0.310257
  10 H :    0.159446
  11 H :    0.150811

-------------------------------
LOEWDIN REDUCED ORBITAL CHARGES
-------------------------------
  0 O s       :     3.446550  s :     3.446550
      pz      :     1.631180  p :     4.801586
      px      :     1.330324
      py      :     1.840081
      dz2     :     0.007185  d :     0.057258
      dxz     :     0.024531
      dyz     :     0.007326
      dx2y2   :     0.011887
      dxy     :     0.006329
      f0      :     0.000622  f :     0.004863
      f+1     :     0.000778
      f-1     :     0.000394
      f+2     :     0.001299
      f-2     :     0.000507
      f+3     :     0.000858
      f-3     :     0.000405
  1 H s       :     0.673223  s :     0.673223
      pz      :     0.050990  p :     0.167331
      px      :     0.068953
      py      :     0.047388
  2 H s       :     0.657577  s :     0.657577
      pz      :     0.075452  p :     0.191612
      px      :     0.071614
      py      :     0.044546
  3 O s       :     3.446549  s :     3.446549
      pz      :     1.514134  p :     4.801586
      px      :     1.755519
      py      :     1.531932
      dz2     :     0.007863  d :     0.057258
      dxz     :     0.014122
      dyz     :     0.013518
      dx2y2   :     0.015124
      dxy     :     0.006632
      f0      :     0.000628  f :     0.004863
      f+1     :     0.000987
      f-1     :     0.000398
      f+2     :     0.001224
      f-2     :     0.000423
      f+3     :     0.000426
      f-3     :     0.000776
  4 H s       :     0.673223  s :     0.673223
      pz      :     0.045812  p :     0.167331
      px      :     0.042920
      py      :     0.078599
  5 H s       :     0.657577  s :     0.657577
      pz      :     0.085931  p :     0.191612
      px      :     0.074677
      py      :     0.031003
  6 O s       :     3.446549  s :     3.446549
      pz      :     1.852234  p :     4.801586
      px      :     1.587667
      py      :     1.361685
      dz2     :     0.010689  d :     0.057258
      dxz     :     0.007804
      dyz     :     0.007222
      dx2y2   :     0.008025
      dxy     :     0.023518
      f0      :     0.000489  f :     0.004863
      f+1     :     0.000684
      f-1     :     0.000812
      f+2     :     0.000457
      f-2     :     0.000497
      f+3     :     0.001052
      f-3     :     0.000873
  7 H s       :     0.657577  s :     0.657577
      pz      :     0.049060  p :     0.191612
      px      :     0.046890
      py      :     0.095661
  8 H s       :     0.673223  s :     0.673223
      pz      :     0.047394  p :     0.167331
      px      :     0.067509
      py      :     0.052428
  9 O s       :     3.446550  s :     3.446550
      pz      :     1.410487  p :     4.801586
      px      :     1.729589
      py      :     1.661509
      dz2     :     0.019561  d :     0.057258
      dxz     :     0.008073
      dyz     :     0.009721
      dx2y2   :     0.007797
      dxy     :     0.012106
      f0      :     0.001290  f :     0.004863
      f+1     :     0.000624
      f-1     :     0.000666
      f+2     :     0.000436
      f-2     :     0.000621
      f+3     :     0.000836
      f-3     :     0.000390
 10 H s       :     0.673223  s :     0.673223
      pz      :     0.082549  p :     0.167331
      px      :     0.044332
      py      :     0.040450
 11 H s       :     0.657577  s :     0.657577
      pz      :     0.038441  p :     0.191612
      px      :     0.061201
      py      :     0.091970


                      *****************************
                      * MAYER POPULATION ANALYSIS *
                      *****************************

  NA   - Mulliken gross atomic population
  ZA   - Total nuclear charge
  QA   - Mulliken gross atomic charge
  VA   - Mayer's total valence
  BVA  - Mayer's bonded valence
  FA   - Mayer's free valence

  ATOM       NA         ZA         QA         VA         BVA        FA
  0 O      8.7337     8.0000    -0.7337     2.0485     1.6633     0.3852
  1 H      0.6549     1.0000     0.3451     0.9001     0.8537     0.0464
  2 H      0.6114     1.0000     0.3886     0.9014     0.8585     0.0429
  3 O      8.7337     8.0000    -0.7337     2.0485     1.6633     0.3852
  4 H      0.6549     1.0000     0.3451     0.9001     0.8537     0.0464
  5 H      0.6114     1.0000     0.3886     0.9014     0.8585     0.0429
  6 O      8.7337     8.0000    -0.7337     2.0485     1.6633     0.3852
  7 H      0.6114     1.0000     0.3886     0.9014     0.8585     0.0429
  8 H      0.6549     1.0000     0.3451     0.9001     0.8537     0.0464
  9 O      8.7337     8.0000    -0.7337     2.0485     1.6633     0.3852
 10 H      0.6549     1.0000     0.3451     0.9001     0.8537     0.0464
 11 H      0.6114     1.0000     0.3886     0.9014     0.8585     0.0429

  Mayer bond orders larger than 0.100000
B(  0-O ,  1-H ) :   0.8458 B(  0-O ,  2-H ) :   0.7616 B(  3-O ,  4-H ) :   0.8458 
B(  3-O ,  5-H ) :   0.7616 B(  6-O ,  7-H ) :   0.7616 B(  6-O ,  8-H ) :   0.8458 
B(  9-O , 10-H ) :   0.8458 B(  9-O , 11-H ) :   0.7616 


----------------------------------
MP2 DERIVATIVE INTEGRAL GENERATION
----------------------------------


Input Wavefunction Amplitudes       ... input.mp2tsaa.tmp
Input Correlated Electron Density   ... input.pmp2re
Input Energy Weighted Density       ... input.wmp2.tmp
Input SCF Electron Density          ... input.scfp

One-Electron Terms    ...
                        ... One-Electron Terms done
Prescreening matrices              ... done

Batch handling in the gradient evaluation:
Memory available                      ...  256.0 MB
Memory per occupied orbital in Q2     ...    3.6 MB
Memory per occupied orbital in Q3     ...    0.1 MB
Total memory requirement per |i>      ...    3.7 MB
Max. Number of orbitals possible      ...     69
Number of orbitals treated per batch  ...     16
Number of batches to be done          ...      1
Batch   0: i=    4 ...    19

---------------------------------------
MP2 TOTAL ENERGY:     -305.301886332 Eh
---------------------------------------

-----------------------------------
NORM OF THE MP2 GRADIENT:  0.000931
-----------------------------------

-------------------------   --------------------
FINAL SINGLE POINT ENERGY      -305.301886332108
-------------------------   --------------------

                                *** OPTIMIZATION RUN DONE ***

                            ***************************************
                            *     ORCA property calculations      *
                            ***************************************

                                    ---------------------
                                    Active property flags
                                    ---------------------
   (+) Dipole Moment


------------------------------------------------------------------------------
                       ORCA ELECTRIC PROPERTIES CALCULATION
------------------------------------------------------------------------------

Dipole Moment Calculation                       ... on
Quadrupole Moment Calculation                   ... off
Polarizability Calculation                      ... off
GBWName                                         ... input.gbw
Electron density file                           ... input.scfp
The origin for moment calculation is the CENTER OF MASS  = ( 0.000000, -0.000000  0.000000)

-------------
DIPOLE MOMENT
-------------
                                X             Y             Z
Electronic contribution:      0.00000      -0.00000      -0.00000
Nuclear contribution   :     -0.00000       0.00000       0.00000
                        -----------------------------------------
Total Dipole Moment    :     -0.00000       0.00000      -0.00000
                        -----------------------------------------
Magnitude (a.u.)       :      0.00000
Magnitude (Debye)      :      0.00001



--------------------
Rotational spectrum 
--------------------
 
Rotational constants in cm-1:     0.121464     0.121464     0.061962 
Rotational constants in MHz :  3641.407125  3641.391390  1857.569842 

 Dipole components along the rotational axes: 
x,y,z [a.u.] :    -0.000002     0.000002     0.000002 
x,y,z [Debye]:    -0.000004     0.000004     0.000005 

 

                         *** MP2 UNRELAXED DENSITY ***

------------------------------------------------------------------------------
                       ORCA ELECTRIC PROPERTIES CALCULATION
------------------------------------------------------------------------------

Dipole Moment Calculation                       ... on
Quadrupole Moment Calculation                   ... off
Polarizability Calculation                      ... off
GBWName                                         ... input.gbw
Electron density file                           ... input.pmp2ur
The origin for moment calculation is the CENTER OF MASS  = ( 0.000000, -0.000000  0.000000)

-------------
DIPOLE MOMENT
-------------
                                X             Y             Z
Electronic contribution:      0.00000      -0.00000      -0.00000
Nuclear contribution   :     -0.00000       0.00000       0.00000
                        -----------------------------------------
Total Dipole Moment    :     -0.00000       0.00000      -0.00000
                        -----------------------------------------
Magnitude (a.u.)       :      0.00000
Magnitude (Debye)      :      0.00001



--------------------
Rotational spectrum 
--------------------
 
Rotational constants in cm-1:     0.121464     0.121464     0.061962 
Rotational constants in MHz :  3641.407125  3641.391390  1857.569842 

 Dipole components along the rotational axes: 
x,y,z [a.u.] :    -0.000002     0.000002     0.000002 
x,y,z [Debye]:    -0.000004     0.000004     0.000005 

 

                           *** MP2 RELAXED DENSITY ***

------------------------------------------------------------------------------
                       ORCA ELECTRIC PROPERTIES CALCULATION
------------------------------------------------------------------------------

Dipole Moment Calculation                       ... on
Quadrupole Moment Calculation                   ... off
Polarizability Calculation                      ... off
GBWName                                         ... input.gbw
Electron density file                           ... input.pmp2re
The origin for moment calculation is the CENTER OF MASS  = ( 0.000000, -0.000000  0.000000)

-------------
DIPOLE MOMENT
-------------
                                X             Y             Z
Electronic contribution:      0.00000       0.00000      -0.00000
Nuclear contribution   :     -0.00000       0.00000       0.00000
                        -----------------------------------------
Total Dipole Moment    :     -0.00000       0.00000      -0.00000
                        -----------------------------------------
Magnitude (a.u.)       :      0.00000
Magnitude (Debye)      :      0.00001



--------------------
Rotational spectrum 
--------------------
 
Rotational constants in cm-1:     0.121464     0.121464     0.061962 
Rotational constants in MHz :  3641.407125  3641.391390  1857.569842 

 Dipole components along the rotational axes: 
x,y,z [a.u.] :    -0.000002     0.000002     0.000002 
x,y,z [Debye]:    -0.000004     0.000004     0.000006 

 
--------------------------------------------------------------------------
[[65367,1],8]: A high-performance Open MPI point-to-point messaging module
was unable to find any relevant network interfaces:

Module: OpenFabrics (openib)
  Host: smp-n77

Another transport will be used instead, although this may result in
lower performance.

NOTE: You can disable this warning by setting the MCA parameter
btl_base_warn_component_unused to 0.
--------------------------------------------------------------------------
[smp-n77.crc.pitt.edu:29566] 11 more processes have sent help message help-mpi-btl-base.txt / btl:no-nics
[smp-n77.crc.pitt.edu:29566] Set MCA parameter "orte_base_help_aggregate" to 0 to see all help / error messages

Timings for individual modules:

Sum of individual times         ...      184.506 sec (=   3.075 min)
GTO integral calculation        ...       12.970 sec (=   0.216 min)   7.0 %
SCF iterations                  ...       34.784 sec (=   0.580 min)  18.9 %
MP2 module                      ...      135.975 sec (=   2.266 min)  73.7 %
Geometry relaxation             ...        0.777 sec (=   0.013 min)   0.4 %
                             ****ORCA TERMINATED NORMALLY****
TOTAL RUN TIME: 0 days 0 hours 3 minutes 5 seconds 959 msec
