{
    "schema_name": "qc_schema_output",
    "schema_version": 1,
    "qcjson_creator_version": "0.2.0",
    "provenance": {
        "creator": "ORCA",
        "version": "4.2.0"
    },
    "molecule": {
        "geometry": [[0.0, 0.0, 0.0]],
        "symbols": [ "Al" ]
    },
    "molecular_charge": 0,
    "molecular_multiplicity": 2,
    "name": "al.chrg0.mult2-orca.sp.esp-ccsdt.anopvqz.vtightscf.sym.frozencore",
    "atomic_numbers": [13],
    "n_electrons": 13,
    "driver": "energy",
    "return_result": -241.934366347,
    "model": {
        "method": "CCSD(T)",
        "basis": "ano-pVQZ"
    },
    "keywords": {
        "scf_convergence_tolerance": "VeryTight",
        "hf_type": "UHF",
        "scf_grid_level": 2,
        "frozen_core": true,
        "frozen_electrons": 10,
        "final_grid_level": 2,
        "other": [ "UseSym", "KeepDens" ]
    },
    "properties": {
        "scf_total_energy": -241.88077447,
        "mp2_correlation_energy": -0.038350363,
        "mp2_total_energy": -241.91912488,
        "ccsd_total_energy": -241.933073549,
        "t1_diagnostic": 0.02040843,
        "ccsd(t)_total_energy": -241.934366347,
        "return_energy": -241.934366347,
        "calcinfo_nbasis": 59,
        "calcinfo_nmo": 59,
        "nuclear_repulsion_energy": 0.0,
        "scf_one_electron_energy": -336.63671897,
        "scf_two_electron_energy": 94.7559445,
        "uhf_ideal_average_total_spin_squared": 0.75,
        "uhf_calculated_average_total_spin_squared": 0.770548,
        "cc_dipole_moment": [ 0.0, 0.0, 0.0 ],
        "alpha_homo_energy": -0.218437,
        "alpha_homo_lumo_gap_energy": 0.23794,
        "beta_homo_energy": -0.363349,
        "beta_homo_lumo_gap_energy": 0.389557
    },
    "success": true
}