
                                 *****************
                                 * O   R   C   A *
                                 *****************

           --- An Ab Initio, DFT and Semiempirical electronic structure package ---

                  #######################################################
                  #                        -***-                        #
                  #          Department of theory and spectroscopy      #
                  #               Directorship: Frank Neese             #
                  #        Max Planck Institute fuer Kohlenforschung    #
                  #                Kaiser Wilhelm Platz 1               #
                  #                 D-45470 Muelheim/Ruhr               #
                  #                      Germany                        #
                  #                                                     #
                  #                  All rights reserved                #
                  #                        -***-                        #
                  #######################################################


                         Program Version 4.2.0 -  RELEASE  -


 With contributions from (in alphabetic order):
   Daniel Aravena         : Magnetic Suceptibility
   Michael Atanasov       : Ab Initio Ligand Field Theory (pilot matlab implementation)
   Alexander A. Auer      : GIAO ZORA, VPT2
   Ute Becker             : Parallelization
   Giovanni Bistoni       : ED, misc. LED, open-shell LED, HFLED
   Martin Brehm           : Molecular dynamics
   Dmytro Bykov           : SCF Hessian
   Vijay G. Chilkuri      : MRCI spin determinant printing, contributions to CSF-ICE
   Dipayan Datta          : RHF DLPNO-CCSD density
   Achintya Kumar Dutta   : EOM-CC, STEOM-CC
   Dmitry Ganyushin       : Spin-Orbit,Spin-Spin,Magnetic field MRCI
   Miquel Garcia          : C-PCM Hessian, Gaussian charge scheme
   Yang Guo               : DLPNO-NEVPT2, CIM, IAO-localization
   Andreas Hansen         : Spin unrestricted coupled pair/coupled cluster methods
   Benjamin Helmich-Paris : CASSCF linear response (MC-RPA)
   Lee Huntington         : MR-EOM, pCC
   Robert Izsak           : Overlap fitted RIJCOSX, COSX-SCS-MP3, EOM
   Christian Kollmar      : KDIIS, OOCD, Brueckner-CCSD(T), CCSD density
   Simone Kossmann        : Meta GGA functionals, TD-DFT gradient, OOMP2, MP2 Hessian
   Martin Krupicka        : AUTO-CI
   Lucas Lang             : DCDCAS
   Dagmar Lenk            : GEPOL surface, SMD
   Dimitrios Liakos       : Extrapolation schemes; Compound Job, initial MDCI parallelization
   Dimitrios Manganas     : Further ROCIS development; embedding schemes
   Dimitrios Pantazis     : SARC Basis sets
   Taras Petrenko         : DFT Hessian,TD-DFT gradient, ASA, ECA, R-Raman, ABS, FL, XAS/XES, NRVS
   Peter Pinski           : DLPNO-MP2, DLPNO-MP2 Gradient
   Christoph Reimann      : Effective Core Potentials
   Marius Retegan         : Local ZFS, SOC
   Christoph Riplinger    : Optimizer, TS searches, QM/MM, DLPNO-CCSD(T), (RO)-DLPNO pert. Triples
   Tobias Risthaus        : Range-separated hybrids, TD-DFT gradient, RPA, STAB
   Michael Roemelt        : Original ROCIS implementation
   Masaaki Saitow         : Open-shell DLPNO-CCSD energy and density
   Barbara Sandhoefer     : DKH picture change effects
   Avijit Sen             : IP-ROCIS
   Kantharuban Sivalingam : CASSCF convergence, NEVPT2, FIC-MRCI
   Bernardo de Souza      : ESD, SOC TD-DFT
   Georgi Stoychev        : AutoAux, RI-MP2 NMR
   Willem Van den Heuvel  : Paramagnetic NMR
   Boris Wezisla          : Elementary symmetry handling
   Frank Wennmohs         : Technical directorship


 We gratefully acknowledge several colleagues who have allowed us to
 interface, adapt or use parts of their codes:
   Stefan Grimme, W. Hujo, H. Kruse,             : VdW corrections, initial TS optimization,
                  C. Bannwarth                     DFT functionals, gCP, sTDA/sTD-DF
   Ed Valeev, F. Pavosevic, A. Kumar             : LibInt (2-el integral package), F12 methods
   Garnet Chan, S. Sharma, J. Yang, R. Olivares  : DMRG
   Ulf Ekstrom                                   : XCFun DFT Library
   Mihaly Kallay                                 : mrcc  (arbitrary order and MRCC methods)
   Andreas Klamt, Michael Diedenhofen            : otool_cosmo (COSMO solvation model)
   Jiri Pittner, Ondrej Demel                    : Mk-CCSD
   Frank Weinhold                                : gennbo (NPA and NBO analysis)
   Christopher J. Cramer and Donald G. Truhlar   : smd solvation model
   Lars Goerigk                                  : TD-DFT with DH, B97 family of functionals
   V. Asgeirsson, H. Jonsson                     : NEB implementation
   FAccTs GmbH                                   : IRC, NEB, NEB-TS, Multilevel, MM, QM/MM, CI optimization
   S Lehtola, MJT Oliveira, MAL Marques          : LibXC Library


 Your calculation uses the libint2 library for the computation of 2-el integrals
 For citations please refer to: http://libint.valeyev.net

 Your ORCA version has been built with support for libXC version: 4.2.3
 For citations please refer to: https://tddft.org/programs/libxc/

 This ORCA versions uses:
   CBLAS   interface :  Fast vector & matrix operations
   LAPACKE interface :  Fast linear algebra routines
   SCALAPACK package :  Parallel linear algebra routines




***************************************
The coordinates will be read from file: /ihome/jkeith/liz132/orca/gas/CO2/B3LYP/geo.xyz
***************************************


Your calculation utilizes the SMD solvation module
Please cite in your paper:
A.V. Marenich, C.J. Cramer, D.G. Truhlar J. Phys. Chem. B, 113, (2009), 6378 

----- Orbital basis set information -----
Your calculation utilizes the basis: ma-def2-TZVP
   F. Weigend and R. Ahlrichs, Phys. Chem. Chem. Phys. 7, 3297 (2005).
   J. Zheng, X. Xu and D. G. Truhlar, Theor. Chem. Acc. 128, 295 (2011).

----- AuxJ basis set information -----
Your calculation utilizes the AutoAux generation procedure.
  G. L. Stoychev, A. A. Auer, F. Neese, J. Chem. Theory Comput. 13, 554 (2017)

----- AuxC basis set information -----
Your calculation utilizes the AutoAux generation procedure.
  G. L. Stoychev, A. A. Auer, F. Neese, J. Chem. Theory Comput. 13, 554 (2017)

----- AuxJK basis set information -----
Your calculation utilizes the AutoAux generation procedure.
  G. L. Stoychev, A. A. Auer, F. Neese, J. Chem. Theory Comput. 13, 554 (2017)

================================================================================
                                        WARNINGS
                       Please study these warnings very carefully!
================================================================================


WARNING: MDCI localization with Augmented Hessian Foster-Boys
  ===> : Switching off randomization!

WARNING: Post HF methods need fully converged wavefunctions
  ===> : Setting SCFConvForced true
         You can overwrite this default with %scf ConvForced false 


INFO   : the flag for use of LIBINT has been found!

================================================================================
                                       INPUT FILE
================================================================================
NAME = geo.inp
|  1> ! DLPNO-CCSD(T) ma-def2-TZVP GRID5 NOFINALGRID TightSCF SP
|  2> ! AUTOAUX
|  3> ! NOFROZENCORE
|  4> ! CPCM
|  5> %cpcm
|  6> smd true
|  7> SMDsolvent "Acetonitrile"
|  8> end
|  9> 
| 10> %pal
| 11>     nprocs 4
| 12> end
| 13> 
| 14> * xyzfile 0 1 /ihome/jkeith/liz132/orca/gas/CO2/B3LYP/geo.xyz
| 15> 
| 16>                          ****END OF INPUT****
================================================================================

                       ****************************
                       * Single Point Calculation *
                       ****************************

---------------------------------
CARTESIAN COORDINATES (ANGSTROEM)
---------------------------------
  C      0.000000    0.000000    0.000000
  O      1.159982   -0.000000   -0.000000
  O     -1.159982   -0.000000   -0.000000

----------------------------
CARTESIAN COORDINATES (A.U.)
----------------------------
  NO LB      ZA    FRAG     MASS         X           Y           Z
   0 C     6.0000    0    12.011    0.000000    0.000000    0.000000
   1 O     8.0000    0    15.999    2.192048   -0.000000   -0.000000
   2 O     8.0000    0    15.999   -2.192048   -0.000000   -0.000000

--------------------------------
INTERNAL COORDINATES (ANGSTROEM)
--------------------------------
 C      0   0   0     0.000000000000     0.00000000     0.00000000
 O      1   0   0     1.159982000000     0.00000000     0.00000000
 O      1   2   0     1.159982000000   180.00000000     0.00000000

---------------------------
INTERNAL COORDINATES (A.U.)
---------------------------
 C      0   0   0     0.000000000000     0.00000000     0.00000000
 O      1   0   0     2.192048300278     0.00000000     0.00000000
 O      1   2   0     2.192048300278   180.00000000     0.00000000

---------------------
BASIS SET INFORMATION
---------------------
There are 2 groups of distinct atoms

 Group   1 Type C   : 12s7p2d1f contracted to 6s4p2d1f pattern {621111/4111/11/1}
 Group   2 Type O   : 12s7p2d1f contracted to 6s4p2d1f pattern {621111/4111/11/1}

Atom   0C    basis set group =>   1
Atom   1O    basis set group =>   2
Atom   2O    basis set group =>   2
---------------------------------
AUXILIARY/J BASIS SET INFORMATION
---------------------------------
There are 2 groups of distinct atoms

 Group   1 Type C   : 18s15p14d7f3g contracted to 18s15p14d7f3g pattern {111111111111111111/111111111111111/11111111111111/1111111/111}
 Group   2 Type O   : 18s15p14d7f3g contracted to 18s15p14d7f3g pattern {111111111111111111/111111111111111/11111111111111/1111111/111}

Atom   0C    basis set group =>   1
Atom   1O    basis set group =>   2
Atom   2O    basis set group =>   2
---------------------------------
AUXILIARY/C BASIS SET INFORMATION
---------------------------------
There are 2 groups of distinct atoms

 Group   1 Type C   : 18s15p14d7f3g contracted to 18s15p14d7f3g pattern {111111111111111111/111111111111111/11111111111111/1111111/111}
 Group   2 Type O   : 18s15p14d7f3g contracted to 18s15p14d7f3g pattern {111111111111111111/111111111111111/11111111111111/1111111/111}

Atom   0C    basis set group =>   1
Atom   1O    basis set group =>   2
Atom   2O    basis set group =>   2
----------------------------------
AUXILIARY/JK BASIS SET INFORMATION
----------------------------------
There are 2 groups of distinct atoms

 Group   1 Type C   : 18s15p14d7f3g contracted to 18s15p14d7f3g pattern {111111111111111111/111111111111111/11111111111111/1111111/111}
 Group   2 Type O   : 18s15p14d7f3g contracted to 18s15p14d7f3g pattern {111111111111111111/111111111111111/11111111111111/1111111/111}

Atom   0C    basis set group =>   1
Atom   1O    basis set group =>   2
Atom   2O    basis set group =>   2


           ************************************************************
           *        Program running with 4 parallel MPI-processes     *
           *              working on a common directory               *
           ************************************************************
------------------------------------------------------------------------------
                           ORCA GTO INTEGRAL CALCULATION
------------------------------------------------------------------------------

                         BASIS SET STATISTICS AND STARTUP INFO

 # of primitive gaussian shells          ...   66
 # of primitive gaussian functions       ...  150
 # of contracted shells                  ...   39
 # of contracted basis functions         ...  105
 Highest angular momentum                ...    3
 Maximum contraction depth               ...    6
 Integral package used                   ... LIBINT
 Integral threshhold            Thresh   ...  2.500e-11
 Primitive cut-off              TCut     ...  2.500e-12


------------------------------ INTEGRAL EVALUATION ----------------------------


 * One electron integrals 
 Pre-screening matrix                    ... done
 Shell pair data                         ... done (   0.000 sec)



           ************************************************************
           *        Program running with 4 parallel MPI-processes     *
           *              working on a common directory               *
           ************************************************************
-------------------------------------------------------------------------------
                                 ORCA SCF
-------------------------------------------------------------------------------

------------
SCF SETTINGS
------------
Hamiltonian:
 Ab initio Hamiltonian  Method          .... Hartree-Fock(GTOs)


General Settings:
 Integral files         IntName         .... geo
 Hartree-Fock type      HFTyp           .... RHF
 Total Charge           Charge          ....    0
 Multiplicity           Mult            ....    1
 Number of Electrons    NEL             ....   22
 Basis Dimension        Dim             ....  105
 Nuclear Repulsion      ENuc            ....     58.3928739087 Eh

Convergence Acceleration:
 DIIS                   CNVDIIS         .... on
   Start iteration      DIISMaxIt       ....    12
   Startup error        DIISStart       ....  0.200000
   # of expansion vecs  DIISMaxEq       ....     5
   Bias factor          DIISBfac        ....   1.050
   Max. coefficient     DIISMaxC        ....  10.000
 Newton-Raphson         CNVNR           .... off
 SOSCF                  CNVSOSCF        .... on
   Start iteration      SOSCFMaxIt      ....   150
   Startup grad/error   SOSCFStart      ....  0.003300
 Level Shifting         CNVShift        .... on
   Level shift para.    LevelShift      ....    0.2500
   Turn off err/grad.   ShiftErr        ....    0.0010
 Zerner damping         CNVZerner       .... off
 Static damping         CNVDamp         .... on
   Fraction old density DampFac         ....    0.7000
   Max. Damping (<1)    DampMax         ....    0.9800
   Min. Damping (>=0)   DampMin         ....    0.0000
   Turn off err/grad.   DampErr         ....    0.1000
 Fernandez-Rico         CNVRico         .... off

SCF Procedure:
 Maximum # iterations   MaxIter         ....   125
 SCF integral mode      SCFMode         .... Direct
   Integral package                     .... LIBINT
 Reset frequency        DirectResetFreq ....    20
 Integral Threshold     Thresh          ....  2.500e-11 Eh
 Primitive CutOff       TCut            ....  2.500e-12 Eh

Convergence Tolerance:
 Convergence Check Mode ConvCheckMode   .... Total+1el-Energy
 Convergence forced     ConvForced      .... 1
 Energy Change          TolE            ....  1.000e-08 Eh
 1-El. energy change                    ....  1.000e-05 Eh
 Orbital Gradient       TolG            ....  1.000e-05
 Orbital Rotation angle TolX            ....  1.000e-05
 DIIS Error             TolErr          ....  5.000e-07


Diagonalization of the overlap matrix:
Smallest eigenvalue                        ... 3.239e-04
Time for diagonalization                   ...    0.031 sec
Threshold for overlap eigenvalues          ... 1.000e-08
Number of eigenvalues below threshold      ... 0
Time for construction of square roots      ...    0.001 sec
Total time needed                          ...    0.032 sec

-------------------
DFT GRID GENERATION
-------------------

General Integration Accuracy     IntAcc      ...  5.010
Radial Grid Type                 RadialGrid  ... Gauss-Chebyshev
Angular Grid (max. acc.)         AngularGrid ... Lebedev-434
Angular grid pruning method      GridPruning ... 3 (G Style)
Weight generation scheme         WeightScheme... Becke
Basis function cutoff            BFCut       ...    1.0000e-11
Integration weight cutoff        WCut        ...    1.0000e-14
Grids for H and He will be reduced by one unit

# of grid points (after initial pruning)     ...  32382 (   0.0 sec)
# of grid points (after weights+screening)   ...  31994 (   0.0 sec)
nearest neighbour list constructed           ...    0.0 sec
Grid point re-assignment to atoms done       ...    0.0 sec
Grid point division into batches done        ...    0.3 sec
Reduced shell lists constructed in    0.3 sec

Total number of grid points                  ...    31994
Total number of batches                      ...      501
Average number of points per batch           ...       63
Average number of grid points per atom       ...    10665
Average number of shells per batch           ...    33.13 (84.96%)
Average number of basis functions per batch  ...    93.13 (88.70%)
Average number of large shells per batch     ...    31.15 (94.01%)
Average number of large basis fcns per batch ...    88.19 (94.69%)
Maximum spatial batch extension              ...   2.19, 27.58, 27.58 au
Average spatial batch extension              ...   0.30,  0.60,  0.56 au

Time for grid setup =    0.312 sec

------------------------------
INITIAL GUESS: MODEL POTENTIAL
------------------------------
Loading Hartree-Fock densities                     ... done
Calculating cut-offs                               ... done
Setting up the integral package                    ... done
Initializing the effective Hamiltonian             ... done
Starting the Coulomb interaction                   ... done (   0.0 sec)
Reading the grid                                   ... done
Mapping shells                                     ... done
Starting the XC term evaluation                    ... done (   0.0 sec)
Transforming the Hamiltonian                       ... done (   0.0 sec)
Diagonalizing the Hamiltonian                      ... done (   0.0 sec)
Back transforming the eigenvectors                 ... done (   0.0 sec)
Now organizing SCF variables                       ... done
                      ------------------
                      INITIAL GUESS DONE (   0.4 sec)
                      ------------------

--------------------
CPCM SOLVATION MODEL
--------------------
CPCM parameters:
  Epsilon                                         ...      35.6880
  Refrac                                          ...       1.3300
  Rsolv                                           ...       1.3000
  Surface type                                    ...    GEPOL SES
  Epsilon function type                           ...         CPCM
Solvent:                                     ... ACETONITRILE
SMD-CDS solvent descriptors:
  Soln                                       ...    1.3442
  Soln25                                     ...    1.3416
  Sola                                       ...    0.0700
  Solb                                       ...    0.3200
  Solg                                       ...   41.2500
  Solc                                       ...    0.0000
  Solh                                       ...    0.0000
Radii:
 Radius for C  used is    3.4960 Bohr (=   1.8500 Ang.)
 Radius for O  used is    4.0969 Bohr (=   2.1680 Ang.)
Calculating surface                               ...        done! (  0.0s)
GEPOL surface points                              ...          124
GEPOL Volume                                      ...     501.4657
GEPOL Surface-area                                ...     322.2267
Calculating surface distance matrix               ...        done! (  0.0s)
Performing Cholesky decomposition & store         ...        done! (  0.0s)
Overall time for CPCM initialization              ...                 0.0s
--------------
SCF ITERATIONS
--------------
ITER       Energy         Delta-E        Max-DP      RMS-DP      [F,P]     Damp
               ***  Starting incremental Fock matrix formation  ***
  0   -187.6071094903   0.000000000000 0.03241217  0.00109902  0.2914681 0.7000
  1   -187.6489673055  -0.041857815167 0.02181301  0.00075493  0.2186678 0.7000
                               ***Turning on DIIS***
  2   -187.6720419859  -0.023074680373 0.01252232  0.00048757  0.1626051 0.7000
  3   -187.8927962174  -0.220754231474 0.00608474  0.00034880  0.1193771 0.7000
  4   -187.8652860068   0.027510210587 0.01589663  0.00086789  0.0842697 0.0000
  5   -187.7329669933   0.132319013515 0.00379450  0.00008555  0.0063779 0.0000
                      *** Initiating the SOSCF procedure ***
                           *** Shutting down DIIS ***
                      *** Re-Reading the Fockian *** 
                      *** Removing any level shift *** 
ITER      Energy       Delta-E        Grad      Rot      Max-DP    RMS-DP
  6   -187.71908643   0.0138805652  0.001060  0.001060  0.000790  0.000031
               *** Restarting incremental Fock matrix formation ***
  7   -187.72004728  -0.0009608566  0.000462  0.000268  0.000521  0.000019
  8   -187.72004942  -0.0000021355  0.000184  0.000346  0.000340  0.000013
  9   -187.72004983  -0.0000004087  0.000084  0.000075  0.000045  0.000002
 10   -187.72004988  -0.0000000529  0.000013  0.000005  0.000010  0.000000
                 **** Energy Check signals convergence ****
              ***Rediagonalizing the Fockian in SOSCF/NRSCF***

               *****************************************************
               *                     SUCCESS                       *
               *           SCF CONVERGED AFTER  11 CYCLES          *
               *****************************************************


SMD CDS free energy correction energy :                 1.47015     Kcal/mol
Total Energy after SMD CDS correction =              -187.717707051 Eh

----------------
TOTAL SCF ENERGY
----------------

Total Energy       :         -187.71770705 Eh           -5108.05850 eV

Components:
Nuclear Repulsion  :           58.39287391 Eh            1588.95088 eV
Electronic Energy  :         -246.11058096 Eh           -6697.00938 eV
One Electron Energy:         -372.50939409 Eh          -10136.49594 eV
Two Electron Energy:          126.39881313 Eh            3439.48657 eV
CPCM Dielectric    :           -0.00350772 Eh              -0.09545 eV
SMD CDS (Gcds)     :            0.00234283 Eh               0.06375 eV

Virial components:
Potential Energy   :         -375.12848822 Eh          -10207.76512 eV
Kinetic Energy     :          187.41078117 Eh            5099.70662 eV
Virial Ratio       :            2.00163772

CPCM Solvation Model Properties:
Surface-charge          :           -0.00184789
Charge-correction       :            0.00002017 Eh               0.00055 eV
Free-energy (cav+disp)  :            0.00307777 Eh               0.08375 eV
Corrected G(solv)       :         -187.71460912 Eh           -5107.97420 eV

---------------
SCF CONVERGENCE
---------------

  Last Energy change         ...   -9.8169e-10  Tolerance :   1.0000e-08
  Last MAX-Density change    ...    2.3836e-06  Tolerance :   1.0000e-07
  Last RMS-Density change    ...    1.1266e-07  Tolerance :   5.0000e-09
  Last Orbital Gradient      ...    2.0372e-06  Tolerance :   1.0000e-05
  Last Orbital Rotation      ...    2.4056e-06  Tolerance :   1.0000e-05

             **** THE GBW FILE WAS UPDATED (geo.gbw) ****
             **** DENSITY FILE WAS UPDATED (geo.scfp) ****
             **** ENERGY FILE WAS UPDATED (geo.en.tmp) ****
             **** THE GBW FILE WAS UPDATED (geo.gbw) ****
             **** DENSITY FILE WAS UPDATED (geo.scfp) ****
----------------
ORBITAL ENERGIES
----------------

  NO   OCC          E(Eh)            E(eV) 
   0   2.0000     -20.643285      -561.7323 
   1   2.0000     -20.643242      -561.7312 
   2   2.0000     -11.453589      -311.6680 
   3   2.0000      -1.523672       -41.4612 
   4   2.0000      -1.471095       -40.0305 
   5   2.0000      -0.795022       -21.6337 
   6   2.0000      -0.738853       -20.1052 
   7   2.0000      -0.708011       -19.2660 
   8   2.0000      -0.708005       -19.2658 
   9   2.0000      -0.538645       -14.6573 
  10   2.0000      -0.538636       -14.6570 
  11   0.0000       0.042302         1.1511 
  12   0.0000       0.067414         1.8344 
  13   0.0000       0.072838         1.9820 
  14   0.0000       0.072913         1.9841 
  15   0.0000       0.158590         4.3155 
  16   0.0000       0.184614         5.0236 
  17   0.0000       0.184648         5.0245 
  18   0.0000       0.196510         5.3473 
  19   0.0000       0.205603         5.5947 
  20   0.0000       0.205604         5.5948 
  21   0.0000       0.218083         5.9344 
  22   0.0000       0.240937         6.5562 
  23   0.0000       0.240987         6.5576 
  24   0.0000       0.249719         6.7952 
  25   0.0000       0.391963        10.6658 
  26   0.0000       0.477386        12.9903 
  27   0.0000       0.477435        12.9917 
  28   0.0000       0.558954        15.2099 
  29   0.0000       0.609941        16.5974 
  30   0.0000       0.749891        20.4056 
  31   0.0000       0.752127        20.4664 
  32   0.0000       0.752165        20.4675 
  33   0.0000       0.768122        20.9017 
  34   0.0000       0.768136        20.9020 
  35   0.0000       0.793383        21.5890 
  36   0.0000       0.851771        23.1779 
  37   0.0000       0.851814        23.1790 
  38   0.0000       0.955350        25.9964 
  39   0.0000       1.210221        32.9318 
  40   0.0000       1.210239        32.9323 
  41   0.0000       1.232190        33.5296 
  42   0.0000       1.323422        36.0121 
  43   0.0000       1.644817        44.7577 
  44   0.0000       1.644817        44.7578 
  45   0.0000       1.644913        44.7604 
  46   0.0000       1.688575        45.9485 
  47   0.0000       1.739605        47.3370 
  48   0.0000       1.739628        47.3377 
  49   0.0000       1.932615        52.5891 
  50   0.0000       1.932620        52.5893 
  51   0.0000       2.089006        56.8448 
  52   0.0000       2.209791        60.1315 
  53   0.0000       2.209797        60.1316 
  54   0.0000       2.420837        65.8743 
  55   0.0000       2.420844        65.8745 
  56   0.0000       2.651355        72.1470 
  57   0.0000       2.767995        75.3210 
  58   0.0000       2.848653        77.5158 
  59   0.0000       2.848658        77.5159 
  60   0.0000       3.122195        84.9592 
  61   0.0000       3.122209        84.9596 
  62   0.0000       3.137397        85.3729 
  63   0.0000       3.137402        85.3731 
  64   0.0000       3.160434        85.9998 
  65   0.0000       3.160447        86.0001 
  66   0.0000       3.227758        87.8317 
  67   0.0000       3.227759        87.8318 
  68   0.0000       3.350951        91.1840 
  69   0.0000       3.584358        97.5353 
  70   0.0000       3.739060       101.7450 
  71   0.0000       3.739072       101.7453 
  72   0.0000       3.750615       102.0594 
  73   0.0000       4.038894       109.9039 
  74   0.0000       4.173973       113.5796 
  75   0.0000       4.173977       113.5797 
  76   0.0000       5.293538       144.0445 
  77   0.0000       5.314641       144.6187 
  78   0.0000       5.505295       149.8067 
  79   0.0000       5.505295       149.8067 
  80   0.0000       5.574814       151.6984 
  81   0.0000       5.574814       151.6984 
  82   0.0000       5.632481       153.2676 
  83   0.0000       5.632481       153.2676 
  84   0.0000       6.250504       170.0849 
  85   0.0000       6.250504       170.0849 
  86   0.0000       6.528239       177.6424 
  87   0.0000       6.616514       180.0445 
  88   0.0000       6.616517       180.0446 
  89   0.0000       6.788058       184.7124 
  90   0.0000       6.788058       184.7125 
  91   0.0000       6.788960       184.7370 
  92   0.0000       6.788960       184.7370 
  93   0.0000       6.993243       190.2958 
  94   0.0000       6.993247       190.2959 
  95   0.0000       7.267615       197.7619 
  96   0.0000       7.267621       197.7620 
  97   0.0000       7.422239       201.9694 
  98   0.0000       7.549569       205.4342 
  99   0.0000       7.549573       205.4343 
 100   0.0000       7.990172       217.4236 
 101   0.0000       8.061370       219.3610 
 102   0.0000      25.155256       684.5093 
 103   0.0000      45.635625      1241.8085 
 104   0.0000      45.725200      1244.2459 

                    ********************************
                    * MULLIKEN POPULATION ANALYSIS *
                    ********************************

-----------------------
MULLIKEN ATOMIC CHARGES
-----------------------
   0 C :    0.777377
   1 O :   -0.388689
   2 O :   -0.388689
Sum of atomic charges:   -0.0000000

--------------------------------
MULLIKEN REDUCED ORBITAL CHARGES
--------------------------------
  0 C s       :     2.810941  s :     2.810941
      pz      :     0.656111  p :     2.081336
      px      :     0.769122
      py      :     0.656102
      dz2     :     0.007253  d :     0.295138
      dxz     :     0.133061
      dyz     :     0.000000
      dx2y2   :     0.021755
      dxy     :     0.133069
      f0      :     0.005049  f :     0.035207
      f+1     :     0.003106
      f-1     :     0.000841
      f+2     :     0.008414
      f-2     :     0.000000
      f+3     :     0.005177
      f-3     :     0.012619
  1 O s       :     3.892162  s :     3.892162
      pz      :     1.586645  p :     4.457635
      px      :     1.284345
      py      :     1.586645
      dz2     :     0.003486  d :     0.036616
      dxz     :     0.011335
      dyz     :    -0.000000
      dx2y2   :     0.010458
      dxy     :     0.011337
      f0      :     0.000263  f :     0.002275
      f+1     :     0.000327
      f-1     :     0.000044
      f+2     :     0.000439
      f-2     :     0.000000
      f+3     :     0.000544
      f-3     :     0.000658
  2 O s       :     3.892162  s :     3.892162
      pz      :     1.586645  p :     4.457635
      px      :     1.284345
      py      :     1.586645
      dz2     :     0.003486  d :     0.036616
      dxz     :     0.011335
      dyz     :    -0.000000
      dx2y2   :     0.010458
      dxy     :     0.011337
      f0      :     0.000263  f :     0.002275
      f+1     :     0.000327
      f-1     :     0.000044
      f+2     :     0.000439
      f-2     :     0.000000
      f+3     :     0.000544
      f-3     :     0.000658


                     *******************************
                     * LOEWDIN POPULATION ANALYSIS *
                     *******************************

----------------------
LOEWDIN ATOMIC CHARGES
----------------------
   0 C :   -0.214662
   1 O :    0.107331
   2 O :    0.107331

-------------------------------
LOEWDIN REDUCED ORBITAL CHARGES
-------------------------------
  0 C s       :     2.722655  s :     2.722655
      pz      :     0.665511  p :     2.420598
      px      :     1.089583
      py      :     0.665505
      dz2     :     0.068353  d :     0.930426
      dxz     :     0.328507
      dyz     :     0.000000
      dx2y2   :     0.205054
      dxy     :     0.328513
      f0      :     0.017744  f :     0.140983
      f+1     :     0.017381
      f-1     :     0.002957
      f+2     :     0.029573
      f-2     :     0.000000
      f+3     :     0.028968
      f-3     :     0.044360
  1 O s       :     3.401420  s :     3.401420
      pz      :     1.464823  p :     4.420695
      px      :     1.491049
      py      :     1.464823
      dz2     :     0.009496  d :     0.064663
      dxz     :     0.013340
      dyz     :     0.000000
      dx2y2   :     0.028488
      dxy     :     0.013339
      f0      :     0.000439  f :     0.005891
      f+1     :     0.001332
      f-1     :     0.000073
      f+2     :     0.000731
      f-2     :     0.000000
      f+3     :     0.002219
      f-3     :     0.001097
  2 O s       :     3.401420  s :     3.401420
      pz      :     1.464823  p :     4.420695
      px      :     1.491049
      py      :     1.464823
      dz2     :     0.009496  d :     0.064663
      dxz     :     0.013340
      dyz     :     0.000000
      dx2y2   :     0.028488
      dxy     :     0.013339
      f0      :     0.000439  f :     0.005891
      f+1     :     0.001332
      f-1     :     0.000073
      f+2     :     0.000731
      f-2     :     0.000000
      f+3     :     0.002219
      f-3     :     0.001097


                      *****************************
                      * MAYER POPULATION ANALYSIS *
                      *****************************

  NA   - Mulliken gross atomic population
  ZA   - Total nuclear charge
  QA   - Mulliken gross atomic charge
  VA   - Mayer's total valence
  BVA  - Mayer's bonded valence
  FA   - Mayer's free valence

  ATOM       NA         ZA         QA         VA         BVA        FA
  0 C      5.2226     6.0000     0.7774     4.0461     4.0461     0.0000
  1 O      8.3887     8.0000    -0.3887     2.1275     2.1275    -0.0000
  2 O      8.3887     8.0000    -0.3887     2.1275     2.1275     0.0000

  Mayer bond orders larger than 0.100000
B(  0-C ,  1-O ) :   2.0230 B(  0-C ,  2-O ) :   2.0230 B(  1-O ,  2-O ) :   0.1045 


-------
TIMINGS
-------

Total SCF time: 0 days 0 hours 0 min 5 sec 

Total time                  ....       5.042 sec
Sum of individual times     ....       4.851 sec  ( 96.2%)

Fock matrix formation       ....       4.406 sec  ( 87.4%)
Diagonalization             ....       0.010 sec  (  0.2%)
Density matrix formation    ....       0.002 sec  (  0.0%)
Population analysis         ....       0.002 sec  (  0.0%)
Initial guess               ....       0.113 sec  (  2.2%)
Orbital Transformation      ....       0.000 sec  (  0.0%)
Orbital Orthonormalization  ....       0.000 sec  (  0.0%)
DIIS solution               ....       0.004 sec  (  0.1%)
SOSCF solution              ....       0.003 sec  (  0.1%)


           ************************************************************
           *        Program running with 4 parallel MPI-processes     *
           *              working on a common directory               *
           ************************************************************


------------------------------------------------------------------------------- 
                              ORCA-MATRIX DRIVEN CI                            
------------------------------------------------------------------------------- 


Wavefunction type
-----------------
Correlation treatment                      ...      CCSD     
Single excitations                         ... ON
Orbital optimization                       ... OFF
Calculation of Z vector                    ... OFF
Calculation of Brueckner orbitals          ... OFF
Perturbative triple excitations            ... ON
Calculation of F12 correction              ... OFF
Frozen core treatment                      ... NO frozen core
Reference Wavefunction                     ... RHF
  Internal Orbitals:     0 ...   10 ( 11 MO's/ 22 electrons)
  Virtual  Orbitals:    11 ...  104 ( 94 MO's              )
Number of AO's                             ...    105
Number of electrons                        ...     22
Number of correlated electrons             ...     22

Algorithmic settings
--------------------
Integral transformation                    ... All integrals via the RI transformation
K(C) Formation                             ... RI-DLPNO
   PNO-Integral Storage                    ... ON DISK
   PNO occupation number cut-off           ... 3.330e-07
   Singles PNO occupation number cut-off   ... 9.990e-09
   PNO Mulliken prescreening cut-off       ... 1.000e-03
   Domain cut-off (Mulliken population)    ... 1.000e-03
   PNO Normalization                       ...    1
Maximum number of iterations               ...        50
Convergence tolerance (max. residuum)      ... 1.000e-05
Level shift for amplitude update           ... 2.000e-01
Maximum number of DIIS vectors             ...         7
DIIS turned on at iteration                ...         0
Damping before turning on DIIS             ...     0.500
Damping after turning on DIIS              ...     0.000
Pair specific amplitude update             ... OFF
Natural orbital iterations                 ... OFF
Perturbative natural orbital generation    ... OFF
Printlevel                                 ... 2

Singles Fock matrix elements calculated using PNOs.

Memory handling:
----------------
Maximum memory for working arrays          ...    512 MB
Data storage in matrix containers          ... UNCOMPRESSED
Data type for integral storage             ... DOUBLE
In-Core Storage of quantities:
   Amplitudes+Sigma Vector      ... NO
   J+K operators                ... NO
   DIIS vectors                 ... NO
   3-external integrals         ... NO
   4-external integrals         ... NO

Localization treatment:
-----------------------
Localization option                        ...    6
Localization threshhold                    ... -1.0e+00
Using relative localization threshhold     ... 1.0e-08
Neglect threshold for strong pairs         ... 1.000e-04 Eh
Prescreening threshold for very weak pairs ... 1.000e-06 Eh

Initializing the integral package          ... done
Localizing the valence orbitals
------------------------------------------------------------------------------
                           ORCA ORBITAL LOCALIZATION
------------------------------------------------------------------------------

Input orbitals are from                  ... geo.gbw
Output orbitals are to                   ... geo.loc
Max. number of iterations                ... 128
Localizations seeded randomly            ... off
Convergence tolerance                    ... 1.000e-06
Using relative localization threshhold   ... 1.000e-08
Treshold for strong local MOs            ... 9.500e-01
Treshold for bond MOs                    ... 8.500e-01
Operator                                 ... 0
Orbital range for localization           ... 3 to 10
Localization criterion                   ... FOSTER-BOYS (AUGMENTED HESSIAN)
Doing the dipole integrals     ... o.k.
Initial value of the localization sum :    24.597423
ITERATION   0 : L=   30.4851572021 DL=  5.89e+00 (AVERGE_DL)=    0.4585588710 
ITERATION   1 : L=   30.9829475096 DL=  4.98e-01 (AVERGE_DL)=    0.1333350114 
ITERATION   2 : L=   31.0338062821 DL=  5.09e-02 (AVERGE_DL)=    0.0426190654 
ITERATION   3 : L=   31.2683749548 DL=  2.35e-01 (AVERGE_DL)=    0.0915284251 
ITERATION   4 : L=   31.5478025162 DL=  2.79e-01 (AVERGE_DL)=    0.0998977265 
ITERATION   5 : L=   31.6947348476 DL=  1.47e-01 (AVERGE_DL)=    0.0724402047 
ITERATION   6 : L=   31.7368209536 DL=  4.21e-02 (AVERGE_DL)=    0.0387695140 
ITERATION   7 : L=   31.7471619551 DL=  1.03e-02 (AVERGE_DL)=    0.0192177388 
ITERATION   8 : L=   31.7497101572 DL=  2.55e-03 (AVERGE_DL)=    0.0095397702 
ITERATION   9 : L=   31.7503595036 DL=  6.49e-04 (AVERGE_DL)=    0.0048156975 
ITERATION  10 : L=   31.7505234472 DL=  1.64e-04 (AVERGE_DL)=    0.0024197373 
ITERATION  11 : L=   31.7505633874 DL=  3.99e-05 (AVERGE_DL)=    0.0011943349 
ITERATION  12 : L=   31.7505726734 DL=  9.29e-06 (AVERGE_DL)=    0.0005758866 
ITERATION  13 : L=   31.7505747269 DL=  2.05e-06 (AVERGE_DL)=    0.0002708112 
ITERATION  14 : L=   31.7505751582 DL=  4.31e-07 (AVERGE_DL)=    0.0001241026 
LOCALIZATION SUM CONVERGED

------------------------------------------------------
AUGMENTED HESSIAN OPTIMIZATION OF FOSTER-BOYS ORBITALS
------------------------------------------------------

Spin operator:           0
Orbital window:          3 to 10
Number of iterations:    128
Gradient tolerance:      1.000e-06
Number of pairs:         28
Davidson threshold:      2000
Diagonalization method:  LAPACK
Iter:    0   L: 31.7505751582   Grad. norm: 7.407392e-04
Iter:    1   L: 31.7505752802   Grad. norm: 3.136362e-06
   *** Likely close to a maximum now. ***
       Augmented Hessian eigenvalues:  1.60e-12 -2.71e-05 -2.71e-05 -1.06e+00 ... 
Iter:    2   L: 31.7505752802   Grad. norm: 2.515150e-11
LOCALIZATION HAS CONVERGED.

Eigenvalues of the Hessian:
  0 -2.709e-05
  1 -2.709e-05
  2 -1.064e+00
  3 -1.064e+00
  4 -1.079e+00
  5 -1.079e+00
  6 -4.029e+00
  7 -4.029e+00
  8 -4.029e+00
  9 -4.029e+00
    ...


------------------------------------------------------------------------------- 
                    LOCALIZED MOLECULAR ORBITAL COMPOSITIONS                   
------------------------------------------------------------------------------- 

The Mulliken populations for each LMO on each atom are computed
The LMO`s will be ordered according to atom index and type
  (A) Strongly localized MO`s have populations of >=0.950 on one atom
  (B) Two center bond orbitals have populations of >=0.850 on two atoms
  (C) Other MO`s are considered to be `delocalized`

FOUND  -   2 strongly local MO`s
       -   6 two center bond MO`s
       -   0 significantly delocalized MO`s

Rather strongly localized orbitals:
MO   4:   2O  -   0.997114
MO   3:   1O  -   0.997114
Bond-like localized orbitals:
MO  10:   2O  -   0.732699  and   0C  -   0.267226
MO   9:   2O  -   0.732699  and   0C  -   0.267226
MO   8:   2O  -   0.732546  and   0C  -   0.267377
MO   7:   1O  -   0.732699  and   0C  -   0.267226
MO   6:   1O  -   0.732699  and   0C  -   0.267226
MO   5:   1O  -   0.732546  and   0C  -   0.267377
Localized MO's were stored in: geo.loc

Localizing the chemical core orbitals
------------------------------------------------------------------------------
                           ORCA ORBITAL LOCALIZATION
------------------------------------------------------------------------------

Input orbitals are from                  ... geo.gbw
Output orbitals are to                   ... geo.loc
Max. number of iterations                ... 128
Localizations seeded randomly            ... off
Convergence tolerance                    ... 1.000e-06
Using relative localization threshhold   ... 1.000e-08
Treshold for strong local MOs            ... 9.500e-01
Treshold for bond MOs                    ... 8.500e-01
Operator                                 ... 0
Orbital range for localization           ... 0 to 2
Localization criterion                   ... FOSTER-BOYS (AUGMENTED HESSIAN)
Doing the dipole integrals     ... o.k.
Initial value of the localization sum :     9.606977
ITERATION   0 : L=    9.6069825133 DL=  5.14e-06 (AVERGE_DL)=    0.0013095561 
ITERATION   1 : L=    9.6069825133 DL=  0.00e+00 (AVERGE_DL)=    0.0000000000 
LOCALIZATION SUM CONVERGED

------------------------------------------------------
AUGMENTED HESSIAN OPTIMIZATION OF FOSTER-BOYS ORBITALS
------------------------------------------------------

Spin operator:           0
Orbital window:          0 to 2
Number of iterations:    128
Gradient tolerance:      1.000e-06
Number of pairs:         3
Davidson threshold:      2000
Diagonalization method:  LAPACK
Iter:    0   L: 9.6069825133   Grad. norm: 1.025240e-05
   *** Likely close to a maximum now. ***
       Augmented Hessian eigenvalues:  1.37e-12 -1.92e+01 -1.92e+01 -7.69e+01
Iter:    1   L: 9.6069825133   Grad. norm: 6.832154e-19
LOCALIZATION HAS CONVERGED.

Eigenvalues of the Hessian:
  0 -1.921e+01
  1 -1.921e+01
  2 -7.686e+01


------------------------------------------------------------------------------- 
                    LOCALIZED MOLECULAR ORBITAL COMPOSITIONS                   
------------------------------------------------------------------------------- 

The Mulliken populations for each LMO on each atom are computed
The LMO`s will be ordered according to atom index and type
  (A) Strongly localized MO`s have populations of >=0.950 on one atom
  (B) Two center bond orbitals have populations of >=0.850 on two atoms
  (C) Other MO`s are considered to be `delocalized`

FOUND  -   3 strongly local MO`s
       -   0 two center bond MO`s
       -   0 significantly delocalized MO`s

Rather strongly localized orbitals:
MO   2:   2O  -   0.998991
MO   1:   1O  -   0.998991
MO   0:   0C  -   0.999560
Localized MO's were stored in: geo.loc

Localizing the core orbitals
Warning: reference  - re-canonicalizations have been set to INT 1 VIRT 1
Warning: internal orbitals are localized - no re-canonicalization of internal orbitals
Warning: UsePNO is turned on - no re-canonicalization of internal and virtual orbitals

--------------------------
CLOSED-SHELL FOCK OPERATOR
--------------------------

MDCI_FockCPCM: ediel   =  -0.003507716000
MDCI_FockCPCM: <VCPCM> =   0.092660616599
<ss|ss>:        13695 b          478 skpd (  3.5%)    0.001 s ( 0.000 ms/b)
<ss|sp>:        35310 b          996 skpd (  2.8%)    0.006 s ( 0.000 ms/b)
<ss|sd>:        17160 b          458 skpd (  2.7%)    0.003 s ( 0.000 ms/b)
<ss|sf>:         8910 b          572 skpd (  6.4%)    0.002 s ( 0.000 ms/b)
<ss|pp>:        12870 b          275 skpd (  2.1%)    0.003 s ( 0.000 ms/b)
<ss|pd>:        11880 b          346 skpd (  2.9%)    0.003 s ( 0.000 ms/b)
<ss|pf>:         5940 b          176 skpd (  3.0%)    0.002 s ( 0.000 ms/b)
<ss|dd>:         3465 b          153 skpd (  4.4%)    0.001 s ( 0.000 ms/b)
<ss|df>:         2970 b          118 skpd (  4.0%)    0.001 s ( 0.001 ms/b)
<ss|ff>:          990 b           33 skpd (  3.3%)    0.001 s ( 0.001 ms/b)
<sp|sp>:        23005 b          336 skpd (  1.5%)    0.006 s ( 0.000 ms/b)
<sp|sd>:        22256 b          202 skpd (  0.9%)    0.006 s ( 0.000 ms/b)
<sp|sf>:        11556 b          626 skpd (  5.4%)    0.005 s ( 0.000 ms/b)
<sp|pp>:        16692 b          104 skpd (  0.6%)    0.008 s ( 0.000 ms/b)
<sp|pd>:        15408 b          128 skpd (  0.8%)    0.009 s ( 0.001 ms/b)
<sp|pf>:         7704 b           64 skpd (  0.8%)    0.007 s ( 0.001 ms/b)
<sp|dd>:         4494 b          105 skpd (  2.3%)    0.003 s ( 0.001 ms/b)
<sp|df>:         3852 b           48 skpd (  1.2%)    0.005 s ( 0.001 ms/b)
<sp|ff>:         1284 b           12 skpd (  0.9%)    0.003 s ( 0.002 ms/b)
<sd|sd>:         5460 b           14 skpd (  0.3%)    0.002 s ( 0.000 ms/b)
<sd|sf>:         5616 b          314 skpd (  5.6%)    0.003 s ( 0.001 ms/b)
<sd|pp>:         8112 b            4 skpd (  0.0%)    0.006 s ( 0.001 ms/b)
<sd|pd>:         7488 b           16 skpd (  0.2%)    0.007 s ( 0.001 ms/b)
<sd|pf>:         3744 b            4 skpd (  0.1%)    0.005 s ( 0.001 ms/b)
<sd|dd>:         2184 b           59 skpd (  2.7%)    0.003 s ( 0.001 ms/b)
<sd|df>:         1872 b           16 skpd (  0.9%)    0.004 s ( 0.002 ms/b)
<sd|ff>:          624 b            4 skpd (  0.6%)    0.003 s ( 0.004 ms/b)
<sf|sf>:         1485 b          163 skpd ( 11.0%)    0.002 s ( 0.001 ms/b)
<sf|pp>:         4212 b          162 skpd (  3.8%)    0.005 s ( 0.001 ms/b)
<sf|pd>:         3888 b          218 skpd (  5.6%)    0.006 s ( 0.002 ms/b)
<sf|pf>:         1944 b          110 skpd (  5.7%)    0.005 s ( 0.003 ms/b)
<sf|dd>:         1134 b           92 skpd (  8.1%)    0.002 s ( 0.002 ms/b)
<sf|df>:          972 b           68 skpd (  7.0%)    0.004 s ( 0.004 ms/b)
<sf|ff>:          324 b           22 skpd (  6.8%)    0.003 s ( 0.009 ms/b)
<pp|pp>:         3081 b            1 skpd (  0.0%)    0.004 s ( 0.001 ms/b)
<pp|pd>:         5616 b            2 skpd (  0.0%)    0.008 s ( 0.002 ms/b)
<pp|pf>:         2808 b            0 skpd (  0.0%)    0.006 s ( 0.002 ms/b)
<pp|dd>:         1638 b            8 skpd (  0.5%)    0.004 s ( 0.002 ms/b)
<pp|df>:         1404 b            2 skpd (  0.1%)    0.005 s ( 0.004 ms/b)
<pp|ff>:          468 b            0 skpd (  0.0%)    0.003 s ( 0.007 ms/b)
<pd|pd>:         2628 b            3 skpd (  0.1%)    0.007 s ( 0.003 ms/b)
<pd|pf>:         2592 b            2 skpd (  0.1%)    0.009 s ( 0.004 ms/b)
<pd|dd>:         1512 b           29 skpd (  1.9%)    0.006 s ( 0.004 ms/b)
<pd|df>:         1296 b            4 skpd (  0.3%)    0.008 s ( 0.006 ms/b)
<pd|ff>:          432 b            2 skpd (  0.5%)    0.005 s ( 0.011 ms/b)
<pf|pf>:          666 b            0 skpd (  0.0%)    0.005 s ( 0.007 ms/b)
<pf|dd>:          756 b           16 skpd (  2.1%)    0.004 s ( 0.006 ms/b)
<pf|df>:          648 b            2 skpd (  0.3%)    0.007 s ( 0.011 ms/b)
<pf|ff>:          216 b            0 skpd (  0.0%)    0.004 s ( 0.021 ms/b)
<dd|dd>:          231 b            8 skpd (  3.5%)    0.001 s ( 0.006 ms/b)
<dd|df>:          378 b           13 skpd (  3.4%)    0.004 s ( 0.010 ms/b)
<dd|ff>:          126 b            5 skpd (  4.0%)    0.002 s ( 0.020 ms/b)
<df|df>:          171 b            3 skpd (  1.8%)    0.003 s ( 0.019 ms/b)
<df|ff>:          108 b            2 skpd (  1.9%)    0.004 s ( 0.035 ms/b)
<ff|ff>:           21 b            0 skpd (  0.0%)    0.002 s ( 0.073 ms/b)
Time needed for Fock operator              ...            0.238 sec
Reference energy                           ...   -187.720049813

--------------
DLPNO SETTINGS (2015 fully linear scaling implementation)
--------------

TCutMKN:           1.000e-03
TCutPAO:           1.000e-03
TCutPNO:           3.330e-07
TCutPNOSingles:    9.990e-09
TCutEN:            9.700e-01
TCutPAOExt:        1.000e-01
TCutPairs:         1.000e-04
TCutPre:           1.000e-06
TCutOSV:           1.000e-06
TCutDOij:          1.000e-05
TCutDO:            1.000e-02
TCutC:             1.000e-04
TCutCPAO:          1.000e-03
TCutCMO:           1.000e-03
TScaleDOMP2PreScr: 2.000e+00
TScaleMKNMP2PreScr:1.000e+01
TScalePNOMP2PreScr:1.000e+00
PAO overlap thresh 1.000e-08
TScalePNO_Core:  1.000e-02
Using PNOs for Singles Fock computation
Use new domains
Use fully linear algorithm
TCutTNO:           1.000e-09
TCutMP2Pairs:      1.000e-05
TCutDOStrong:      2.000e-03
TCutMKNStrong:     1.000e-02
TCutMKNWeak:       1.000e-01
TCutDOWeak:        4.000e-03
NTCutTNO:          1

--------------------------
Calculating differential overlap integrals ... ok
--------------------------
ELECTRON PAIR PRESCREENING
--------------------------

Dipole-based pair screening          .... used

   TCutDOij = 1.000000e-05
   TCutPre  = 1.000000e-06
   .... Finished loop over pairs
Total time spent in the prescreening                  ...     0.000 sec
sum of pair energies estimated for screened out pairs ...       0.000000000000 Eh
Thresholds for map construction and integral transformation for crude MP2:
   TCutMKN                    ...     1.0e-02
   TCutDO                     ...     2.0e-02
   TCutPairs                  ...     1.0e-04
   TCutPNO_CrudeMP2           ...     3.3e-07
   TCutPNOSingles_CrudeMP2    ...     1.0e-08
--------------------------------
LOCAL RI TRANSFORMATION (IAVPAO)
--------------------------------

Orbital window:       0 to 10
Number of PAOs:     105
Basis functions:    105 (39 shells)
Aux. functions:     627 (171 shells)

Processing maps (0.0 sec)
Average map sizes:
   Aux shells -> MOs              11.0
   Aux shells -> PAOs            105.0
   MOs        -> AO shells        39.0
   PAOs       -> AO shells        39.0

Calculating integrals (0.2 sec, 5.532 MB)
Sorting integrals (0.0 sec, 5.525 MB)
Total time for the integral transformation: 0.2 sec
--------------------------------
INITIAL GUESS AND PNO GENERATION
--------------------------------

PNO truncation parameters                   .... 
    PAOOverlapThresh   =        1.000e-08

    TCutPairs          =        1.000e-04
    TCutPNO            =        3.330e-07
    TCutPNOSingles     =        9.990e-09
    TCutPNO (core)     =        3.330e-09
    TCutPNOSingles(core)=       9.990e-11
    TCutMP2Pairs       =        1.000e-05
    TCutMKN            =        1.000e-02
    TCutDO             =        2.000e-02

Pair selection                          .... not used
Type of local MP2 treatment                 .... semi-local MP2
Strategy for PNO selection                  .... occupation number selection
Pair density normalization                  .... MP2 norm
Spin component scaling                      .... not used

   .... Finished loop over pairs
Making pair pair interaction lists          ... done

                       ===========================
                         55 OF   66 PAIRS ARE KEPT CCSD PAIRS
                          6 OF   66 PAIRS ARE KEPT MP2 PAIRS FOR (T)
                          5 OF   66 PAIRS ARE SKIPPED
                       ===========================

Total time spent in the initial guess                 ...     0.151 sec
SL-MP2 correlation energy (all non-screened pairs)    ...      -0.625513710954 Eh

Initial PNO correlation energy                        ...      -0.624735089690 Eh
sum of pair energies prescreened and skipped MP2 pairs...      -0.000013167707 Eh
sum of pair energies of crude MP2 skipped pairs only  ...      -0.000013167707 Eh
sum of MP2 pair energies for pairs that were not kept ...      -0.000105318026 Eh
sum of PNO error estimates for the kept pairs         ...      -0.000673303237 Eh
                                                          --------------------
sum of all corrections                                         -0.000778621263
Initial total correlation energy                               -0.625513710954
Thresholds for map construction and integral transformation for fine MP2 and CCSD(T) calculation:
   TCutMKN   ...     1.0e-03
   TCutDO    ...     1.0e-02
   TCutPairs ...     1.0e-04
   TCutCMO   ...     1.0e-03
   TCutCPAO  ...     1.0e-03

Thresholds for map construction and integral transformation for strong Triples:
   TCutMKN   ...     1.0e-02
   TCutDO    ...     2.0e-02
   TCutCMO   ...     1.0e-03
   TCutCPAO  ...     1.0e-03

Thresholds for map construction and integral transformation for weak Triples:
   TCutMKN   ...     1.0e-01
   TCutDO    ...     4.0e-02
   TCutCMO   ...     1.0e-03
   TCutCPAO  ...     1.0e-03

--------------------------------
LOCAL RI TRANSFORMATION (IAVPAO)
--------------------------------

Orbital window:       0 to 10
Number of PAOs:     105
Basis functions:    105 (39 shells)
Aux. functions:     627 (171 shells)

Processing maps (0.0 sec)
Average map sizes:
   Aux shells -> MOs              11.0
   Aux shells -> PAOs            105.0
   MOs        -> AO shells        39.0
   PAOs       -> AO shells        39.0

Calculating integrals (0.2 sec, 5.532 MB)
Sorting integrals (0.0 sec, 5.525 MB)
Total time for the integral transformation: 0.2 sec
--------------------------------
INITIAL GUESS AND PNO GENERATION
--------------------------------

PNO truncation parameters                   .... 
    PAOOverlapThresh   =        1.000e-08

    TCutPairs          =        1.000e-04
    TCutPNO            =        3.330e-07
    TCutPNOSingles     =        9.990e-09
    TCutPNO (core)     =        3.330e-09
    TCutPNOSingles(core)=       9.990e-11
    TCutMP2Pairs       =        1.000e-05
    TCutMKN            =        1.000e-03
    TCutDO             =        1.000e-02

Pair selection                          .... not used
Type of local MP2 treatment                 .... semi-local MP2
Strategy for PNO selection                  .... occupation number selection
Pair density normalization                  .... MP2 norm
Spin component scaling                      .... not used

   .... Finished loop over pairs

 PNO Occupation Number Statistics: 
  | Av. % of trace(Dij) retained        ...  99.758125929580
  | sigma^2 in % of trace(Dij) retained ...   1.71e-01
  | Av. % of trace(Di) retained         ...  99.999753029561
  | sigma^2 in % of trace(Di) retained  ...   8.96e-09
 Distributions of % trace(Dij) recovered:
  |       >= 99.9  ...    39 ( 63.9 % of all pairs)
  |   [90.0, 99.0) ...     7 ( 11.5 % of all pairs)
  |   [99.0, 99.9) ...    15 ( 24.6 % of all pairs)
 Distributions of % trace(Di) recovered :
  |       >= 99.9  ...    11 (100.0 % of all I-pairs )

Making pair pair interaction lists          ... done

                       ===========================
                         55 OF   61 PAIRS ARE KEPT
                       ===========================

Total time spent in the initial guess                 ...     0.324 sec
SL-MP2 correlation energy (all non-screened pairs)    ...      -0.625628878920 Eh

Initial PNO correlation energy                        ...      -0.624858099846 Eh
sum of pair energies estimated for screened out pairs ...      -0.000013167707 Eh
sum of MP2 pair energies for pairs that were not kept ...      -0.000092150320 Eh
sum of PNO error estimates for the kept pairs         ...      -0.000678628754 Eh
                                                          --------------------
sum of all corrections                                         -0.000783946781
Initial total correlation energy                               -0.625642046627
Thresholds for map construction and integral transformation for fine MP2 and CCSD(T) calculation:
   TCutMKN   ...     1.0e-03
   TCutDO    ...     1.0e-02
   TCutPairs ...     1.0e-04
   TCutCMO   ...     1.0e-03
   TCutCPAO  ...     1.0e-03

Time for aux screen maps:            0.000
Time for maps after fine MP2:            0.001
-----------------------------
LOCAL RI TRANSFORMATION (IJV)
-----------------------------

Orbital window:       0 to 10
Basis functions:    105 (39 shells)
Aux. functions:     627 (171 shells)

Processing maps (0.0 sec)
Average map sizes:
   Aux shells -> MOs(i)           11.0
   Aux shells -> MOs(j)           11.0
   MOs        -> AO shells        39.0

Calculating integrals (0.2 sec, 0.586 MB)
Sorting integrals (0.0 sec, 0.579 MB)
Total time for the integral transformation: 0.2 sec
--------------------------------
LOCAL RI TRANSFORMATION (VABPAO)
--------------------------------

Number of PAOs:     105
Basis functions:    105 (39 shells)
Aux. functions:     627 (171 shells)

Processing maps (0.0 sec)
Average map sizes:
   Aux shells -> PAOs            105.0
   PAOs       -> AO shells        39.0

Calculating integrals (0.3 sec, 91.949 MB)
Finished


-------------------------------------
Pair Pair Term precalculation with     
RI-(ij|mn) and (im|jn) transformation  
ON THE FLY                             
-------------------------------------

   IBatch   1 (of   3)              ... done (    0.834 sec)
   IBatch   2 (of   3)              ... done (    0.878 sec)
   IBatch   3 (of   3)              ... done (    0.553 sec)
Total EXT                           ...           2.265 sec

---------------------
RI-PNO TRANSFORMATION
---------------------

Total Number of PNOs                   ...  1751
Average number of PNOs per pair        ...    31
Maximal number of PNOs per pair        ...    45
   #pairs with  1 -  5 PNOs   :    0
   #pairs with  6 - 10 PNOs   :    2
   #pairs with 11 - 15 PNOs   :    1
   #pairs with 16 - 20 PNOs   :    9
   #pairs with 21 - 25 PNOs   :    8
   #pairs with 26 - 30 PNOs   :    0
   #pairs with 31 - 35 PNOs   :    8
   #pairs with 36 - 40 PNOs   :   15
   #pairs with 41 - 45 PNOs   :   12
   #pairs with 46 - 50 PNOs   :    0

Generation of (ij|ab)[P] integrals            ... on
Generation of (ia|bc)[P],(ja|bc)[P] integrals ... on
Storage of 3 and 4 external integrals         ... on
Generation of ALL (ka|bc)[P] integrals        ... on
Keep RI integrals in memory                   ... off

Ibatch:  1 (of  1)
Starting 2-4 index PNO integral generation ... done

Timings:
Total PNO integral transformation time     ...          1.127 sec
Size of the 3-external file                ...        18 MB
Size of the 4-external file                ...        92 MB
Size of the IKJL file                      ...         0 MB
Size of the all 3-external file            ...       100 MB
Size of the 1-external file                ...         0 MB

Making pair/pair overlap matrices          ... done (    0.078 sec)
Size of the pair overlap file              ... 19 MB
Redoing the guess amplitudes               ... done (    0.000 sec)

-------------------------
FINAL STARTUP INFORMATION
-------------------------

E(0)                                       ...   -187.720049813
E(SL-MP2)                                  ...     -0.625628879
E(SL-MP2) including corrections            ...     -0.625642047
Initial E(tot)                             ...   -188.345691860
<T|T>                                      ...      0.135167105
Number of pairs included                   ... 55
Total number of pairs                      ... 66

------------------------------------------------
                  RHF COUPLED CLUSTER ITERATIONS
------------------------------------------------

Number of PNO amplitudes to be optimized   ...        61895
Number of non-PNO amplitudes               ...       485980
Untruncated number of regular amplitudes   ...       583176

Iter       E(tot)           E(Corr)          Delta-E          Residual     Time
  0   -188.345703611     -0.624869850      0.000759029      0.052839436    0.85
                           *** Turning on DIIS ***
  1   -188.347456650     -0.626622890     -0.001753040      0.009832542    0.84
  2   -188.362119654     -0.641285894     -0.014663004      0.003781559    0.85
  3   -188.365121952     -0.644288192     -0.003002298      0.002113942    0.85
  4   -188.366667125     -0.645833364     -0.001545173      0.000541770    0.85
  5   -188.366995894     -0.646162134     -0.000328769      0.000224800    0.85
  6   -188.366989453     -0.646155693      0.000006441      0.000093344    0.85
  7   -188.366997288     -0.646163527     -0.000007835      0.000029428    0.84
  8   -188.366999417     -0.646165656     -0.000002129      0.000009032    0.86
               --- The Coupled-Cluster iterations have converged ---

----------------------
COUPLED CLUSTER ENERGY
----------------------

E(0)                                       ...   -187.720049813
E(CORR)(strong-pairs)                      ...     -0.646165656
E(CORR)(weak-pairs)                        ...     -0.000783947
E(CORR)(corrected)                         ...     -0.646949603
E(TOT)                                     ...   -188.366999417
Singles Norm <S|S>**1/2                    ...      0.069862158  
T1 diagnostic                              ...      0.014894662  

------------------
LARGEST AMPLITUDES
------------------
   5-> 11   5-> 11       0.046543
   8-> 11   8-> 11       0.046543
   6-> 11   6-> 11       0.046540
   9-> 11   9-> 11       0.046540
  10-> 11  10-> 11       0.046540
   7-> 11   7-> 11       0.046540
   6-> 11   5-> 11       0.024468
   7-> 11   5-> 11       0.024468
   9-> 11   8-> 11       0.024468
  10-> 11   8-> 11       0.024468
   7-> 11   6-> 11       0.024466
  10-> 11   9-> 11       0.024466
  10-> 12  -1-> -1       0.022238
   9-> 12  -1-> -1       0.022238
   7-> 12  -1-> -1       0.022238
   6-> 12  -1-> -1       0.022238


-------------------------------------------
DLPNO BASED TRIPLES CORRECTION
-------------------------------------------

Singles multiplier          ...  1.000000
TCutTNO                     ... 1.000e-09
TCutMP2Pairs                ... 1.000e-05
TCutDOStrong                ... 2.000e-02
TCutMKNStrong               ... 1.000e-02
TCutDOWeak                  ... 4.000e-02
TCutMKNWeak                 ... 1.000e-01

Fragment selection                          .... not used
Fock matrix occ-virt block is zero --> Setting DT_in_Triples to false.
Number of Triples that are to be computed   ...       208

 . . . . . . . . .
10% done  
20% done  
30% done  
40% done  
50% done  
60% done  
70% done  
80% done               (      3.442 sec)
 . . . . . . . . .
90% done               (      0.527 sec)
Triples timings:
Total time for T0               ...     4.131 sec
Total time for Iterative (T)    ...     0.000 sec
Total time of overall (T)       ...     4.219 sec

Triples List generation         ...     0.000 sec
TNO generation                  ...     0.160 sec
Pair density generation         ...     0.001 sec
Look up tables                  ...     0.000 sec
Generating 3-index integrals    ...     1.977 sec
  Make 4-ind.int. from 3-ind.int...     1.250 sec
  Projecting amplitudes (D + S) ...     0.120 sec
  Downprojecting integrals      ...     0.000 sec
  Energy contr. (sum over a,b,c)...     0.188 sec
Fitting ET(->0)                 ...     0.000 sec

Everything after 3-index        ...     1.992 sec

Timing details:
 TNO integrals                  ...     3.059 sec
   Reading 3-index integrals    ...     0.037 sec
   Sorting integrals            ...     0.525 sec
       Sorting integrals 1      ...     0.000 sec
       Sorting integrals 2      ...     0.231 sec
       Sorting integrals 3      ...     0.065 sec
       Sorting integrals 4      ...     0.004 sec
       Sorting integrals 5      ...     0.013 sec
       Sorting integrals 6      ...     0.212 sec
   Calculating local VM**-1/2   ...     0.136 sec
   Orthogonal. integrals        ...     0.144 sec
   Multipl. 3-index integrals   ...     2.217 sec
   All concerning IRIab (w/TNO) ...     0.716 sec

 Calculate W0/W1                ...     0.432 sec
 W 3-ext contribution           ...     0.212 sec
 W 3-int contribution           ...     0.064 sec
 Sorting W                      ...     0.134 sec

 V exchange contribution        ...     0.080 sec

 Timings for Triples without generation
     of 3-index integrals       ...     1.991 sec
       0 weak pairs             ...     1.862 sec
       1 weak pair              ...     0.129 sec
       2 weak pairs             ...     0.000 sec
       3 weak pairs             ...     0.000 sec
  Extra time for extrapolation  ...     0.000 sec

Number of Triples   (0, 1, 2, 3 weak pairs; overall):    184      24       0       0  (   208)
Number of Atoms     (0, 1, 2, 3 weak pairs; overall):    3.0     3.0     0.0     0.0  (     3)
Number of PAOs      (0, 1, 2, 3 weak pairs; overall):  105.0   105.0     0.0     0.0  (   105)
Number of AuxFcns   (0, 1, 2, 3 weak pairs; overall):  520.2   627.0     0.0     0.0  (   627)
Number of TNOs      (0, 1, 2, 3 weak pairs         ):   61.9    53.0     0.0     0.0
Aver. Number of NTNO, Atoms, PAOs, AuxFcns / Triples:    208    60.9     3.0   105.0   532.5

Triples Correction (T)                     ...     -0.026098711
Final correlation energy                   ...     -0.673048314
E(CCSD)                                    ...   -188.366999417
E(CCSD(T))                                 ...   -188.393098128


Maximum memory used throughout the entire calculation: 488.4 MB


------------------------------------------------------------------------------- 
                                     TIMINGS                                   
------------------------------------------------------------------------------- 


Total execution time                   ...       18.179 sec

Localization of occupied MO's          ...        0.393 sec (  2.2%)
Fock Matrix Formation                  ...        0.238 sec (  1.3%)
Global overlap, Fock, MKN matrices     ...        0.086 sec (  0.5%)
Differential overlap integrals         ...        0.331 sec (  1.8%)
Organizing maps                        ...        0.003 sec (  0.0%)
RI 3-index integral generations        ...        0.879 sec (  4.8%)
RI-PNO integral transformation         ...        3.669 sec ( 20.2%)
Initial Guess                          ...        0.566 sec (  3.1%)
DIIS Solver                            ...        0.053 sec (  0.3%)
State Vector Update                    ...        0.002 sec (  0.0%)
Sigma-vector construction              ...        7.582 sec ( 41.7%)
  <D|H|D>(0-ext)                       ...        0.173 sec (  2.3% of sigma)
  <D|H|D>(2-ext Fock)                  ...        0.004 sec (  0.0% of sigma)
  <D|H|D>(2-ext)                       ...        0.358 sec (  4.7% of sigma)
  <D|H|D>(4-ext)                       ...        1.222 sec ( 16.1% of sigma)
  <D|H|D>(4-ext-corr)                  ...        4.521 sec ( 59.6% of sigma)
  CCSD doubles correction              ...        0.031 sec (  0.4% of sigma)
  <S|H|S>                              ...        0.022 sec (  0.3% of sigma)
  <S|H|D>(1-ext)                       ...        0.055 sec (  0.7% of sigma)
  <D|H|S>(1-ext)                       ...        0.003 sec (  0.0% of sigma)
  <S|H|D>(3-ext)                       ...        0.052 sec (  0.7% of sigma)
  Fock-dressing                        ...        0.597 sec (  7.9% of sigma)
  Singles amplitudes                   ...        0.051 sec (  0.7% of sigma)
  (ik|jl)-dressing                     ...        0.114 sec (  1.5% of sigma)
  (ij|ab),(ia|jb)-dressing             ...        0.252 sec (  3.3% of sigma)
  Pair energies                        ...        0.002 sec (  0.0% of sigma)
Total Time for computing (T)           ...        4.230 sec ( 23.3% of ALL)


-------------------------   --------------------
FINAL SINGLE POINT ENERGY      -188.393098127872
-------------------------   --------------------


                            ***************************************
                            *     ORCA property calculations      *
                            ***************************************

                                    ---------------------
                                    Active property flags
                                    ---------------------
   (+) Dipole Moment


------------------------------------------------------------------------------
                       ORCA ELECTRIC PROPERTIES CALCULATION
------------------------------------------------------------------------------

Dipole Moment Calculation                       ... on
Quadrupole Moment Calculation                   ... off
Polarizability Calculation                      ... off
GBWName                                         ... geo.gbw
Electron density file                           ... geo.scfp
The origin for moment calculation is the CENTER OF MASS  = ( 0.000000,  0.000000  0.000000)

-------------
DIPOLE MOMENT
-------------
                                X             Y             Z
Electronic contribution:      0.00000      -0.00000       0.00000
Nuclear contribution   :      0.00000       0.00000       0.00000
                        -----------------------------------------
Total Dipole Moment    :      0.00000      -0.00000       0.00000
                        -----------------------------------------
Magnitude (a.u.)       :      0.00000
Magnitude (Debye)      :      0.00000



--------------------
Rotational spectrum 
--------------------
 
Rotational constants in cm-1:     0.000000     0.391536     0.391536 
Rotational constants in MHz :     0.000000 11737.950390 11737.950390 

 Dipole components along the rotational axes: 
x,y,z [a.u.] :     0.000000    -0.000000     0.000000 
x,y,z [Debye]:     0.000000    -0.000000     0.000000 

 

Timings for individual modules:

Sum of individual times         ...       28.546 sec (=   0.476 min)
GTO integral calculation        ...        1.073 sec (=   0.018 min)   3.8 %
SCF iterations                  ...        5.662 sec (=   0.094 min)  19.8 %
MDCI module                     ...       21.812 sec (=   0.364 min)  76.4 %
                             ****ORCA TERMINATED NORMALLY****
TOTAL RUN TIME: 0 days 0 hours 0 minutes 29 seconds 411 msec
