{
    "schema_name": "qc_schema_output",
    "schema_version": 1,
    "qcjson_creator_version": "0.2.0",
    "provenance": {
        "creator": "ORCA",
        "version": "4.2.0"
    },
    "molecule": {
        "geometry": [[0.0, 0.0, 0.0]],
        "symbols": [ "He" ]
    },
    "molecular_charge": 0,
    "molecular_multiplicity": 1,
    "name": "he.chrg0.mult1-orca.sp-ccsd.anopvqz.vtightscf.sym",
    "atomic_numbers": [2],
    "n_electrons": 2,
    "driver": "energy",
    "return_result": -2.902820216,
    "model": {
        "method": "CCSD",
        "basis": "ano-pVQZ"
    },
    "keywords": {
        "scf_convergence_tolerance": "VeryTight",
        "hf_type": "RHF",
        "scf_grid_level": 2,
        "frozen_core": false,
        "final_grid_level": 2,
        "other": [ "UseSym", "KeepDens" ]
    },
    "properties": {
        "scf_total_energy": -2.86167139,
        "mp2_correlation_energy": -0.035772194,
        "mp2_total_energy": -2.89744358,
        "ccsd_total_energy": -2.902820216,
        "t1_diagnostic": 0.001124212,
        "return_energy": -2.902820216,
        "calcinfo_nbasis": 30,
        "calcinfo_nmo": 30,
        "nuclear_repulsion_energy": 0.0,
        "scf_one_electron_energy": -3.8872792,
        "scf_two_electron_energy": 1.02560782,
        "mulliken_charges": [ -0.0 ],
        "loewdin_charges": [ -0.0 ],
        "cc_dipole_moment": [ -0.0, 0.0, 0.0 ],
        "alpha_homo_energy": -0.918032,
        "alpha_homo_lumo_gap_energy": 1.639286,
        "beta_homo_energy": -0.918032,
        "beta_homo_lumo_gap_energy": 1.639286
    },
    "success": true
}