{
    "schema_name": "qc_schema_output",
    "schema_version": 1,
    "qcjson_creator_version": "0.2.0",
    "provenance": {
        "creator": "ORCA",
        "version": "4.2.0"
    },
    "molecule": {
        "geometry": [[0.0, 0.0, 0.0]],
        "symbols": [ "He" ]
    },
    "molecular_charge": 1,
    "molecular_multiplicity": 2,
    "name": "he.chrg1.mult2-orca.sp-hf.anopvqz.vtightscf.sym",
    "atomic_numbers": [2],
    "driver": "energy",
    "return_result": -1.99976116,
    "model": {
        "method": "HF",
        "basis": "ano-pVQZ"
    },
    "keywords": {
        "scf_convergence_tolerance": "VeryTight",
        "hf_type": "UHF",
        "scf_grid_level": 2,
        "final_grid_level": 2,
        "other": [ "UseSym", "KeepDens" ]
    },
    "properties": {
        "scf_total_energy": -1.99976116,
        "scf_iterations": 12,
        "scf_dipole_moment": [ -0.0, 0.0, 0.0 ],
        "return_energy": -1.99976116,
        "calcinfo_nbasis": 30,
        "calcinfo_nmo": 30,
        "nuclear_repulsion_energy": 0.0,
        "scf_one_electron_energy": -1.99976116,
        "scf_two_electron_energy": -0.0,
        "uhf_ideal_average_total_spin_squared": 0.75,
        "uhf_calculated_average_total_spin_squared": 0.75,
        "alpha_homo_energy": -1.999761,
        "alpha_homo_lumo_gap_energy": 2.146192,
        "beta_homo_energy": 14.881638,
        "beta_homo_lumo_gap_energy": -15.702087
    },
    "success": true
}