{
    "schema_name": "qc_schema_output",
    "schema_version": 1,
    "qcjson_creator_version": "0.2.0",
    "provenance": {
        "creator": "ORCA",
        "version": "4.2.0"
    },
    "molecule": {
        "geometry": [[0.0, 0.0, 0.0]],
        "symbols": [ "Li" ]
    },
    "molecular_charge": 0,
    "molecular_multiplicity": 2,
    "name": "li.chrg0.mult2-orca.sp-ccsdt.anopvqz.vtightscf.sym",
    "atomic_numbers": [3],
    "driver": "energy",
    "return_result": -7.473852176,
    "model": {
        "method": "CCSD(T)",
        "basis": "ano-pVQZ"
    },
    "keywords": {
        "scf_convergence_tolerance": "VeryTight",
        "scf_grid_level": 2,
        "final_grid_level": 2,
        "other": [ "UseSym", "KeepDens" ]
    },
    "properties": {
        "scf_total_energy": -7.43274165,
        "mp2_correlation_energy": -0.036553055,
        "mp2_total_energy": -7.469294707,
        "ccsd_total_energy": -7.473852176,
        "t1_diagnostic": 0.001316573,
        "ccsd(t)_total_energy": -7.473882409,
        "return_energy": -7.473882409,
        "calcinfo_nbasis": 31,
        "calcinfo_nmo": 31,
        "nuclear_repulsion_energy": 0.0,
        "scf_one_electron_energy": -9.71661367,
        "scf_two_electron_energy": 2.28387202,
        "uhf_ideal_average_total_spin_squared": 0.75,
        "uhf_calculated_average_total_spin_squared": 0.750016,
        "cc_dipole_moment": [ 0.0, -0.0, -0.0 ],
        "alpha_homo_energy": -0.196361,
        "alpha_homo_lumo_gap_energy": 0.496868,
        "beta_homo_energy": -2.467165,
        "beta_homo_lumo_gap_energy": 2.505272
    },
    "success": true
}