
                                 *****************
                                 * O   R   C   A *
                                 *****************

           --- An Ab Initio, DFT and Semiempirical electronic structure package ---

                  #######################################################
                  #                        -***-                        #
                  #          Department of theory and spectroscopy      #
                  #               Directorship: Frank Neese             #
                  #        Max Planck Institute fuer Kohlenforschung    #
                  #                Kaiser Wilhelm Platz 1               #
                  #                 D-45470 Muelheim/Ruhr               #
                  #                      Germany                        #
                  #                                                     #
                  #                  All rights reserved                #
                  #                        -***-                        #
                  #######################################################


                         Program Version 4.2.0 -  RELEASE  -


 With contributions from (in alphabetic order):
   Daniel Aravena         : Magnetic Suceptibility
   Michael Atanasov       : Ab Initio Ligand Field Theory (pilot matlab implementation)
   Alexander A. Auer      : GIAO ZORA, VPT2
   Ute Becker             : Parallelization
   Giovanni Bistoni       : ED, misc. LED, open-shell LED, HFLED
   Martin Brehm           : Molecular dynamics
   Dmytro Bykov           : SCF Hessian
   Vijay G. Chilkuri      : MRCI spin determinant printing, contributions to CSF-ICE
   Dipayan Datta          : RHF DLPNO-CCSD density
   Achintya Kumar Dutta   : EOM-CC, STEOM-CC
   Dmitry Ganyushin       : Spin-Orbit,Spin-Spin,Magnetic field MRCI
   Miquel Garcia          : C-PCM Hessian, Gaussian charge scheme
   Yang Guo               : DLPNO-NEVPT2, CIM, IAO-localization
   Andreas Hansen         : Spin unrestricted coupled pair/coupled cluster methods
   Benjamin Helmich-Paris : CASSCF linear response (MC-RPA)
   Lee Huntington         : MR-EOM, pCC
   Robert Izsak           : Overlap fitted RIJCOSX, COSX-SCS-MP3, EOM
   Christian Kollmar      : KDIIS, OOCD, Brueckner-CCSD(T), CCSD density
   Simone Kossmann        : Meta GGA functionals, TD-DFT gradient, OOMP2, MP2 Hessian
   Martin Krupicka        : AUTO-CI
   Lucas Lang             : DCDCAS
   Dagmar Lenk            : GEPOL surface, SMD
   Dimitrios Liakos       : Extrapolation schemes; Compound Job, initial MDCI parallelization
   Dimitrios Manganas     : Further ROCIS development; embedding schemes
   Dimitrios Pantazis     : SARC Basis sets
   Taras Petrenko         : DFT Hessian,TD-DFT gradient, ASA, ECA, R-Raman, ABS, FL, XAS/XES, NRVS
   Peter Pinski           : DLPNO-MP2, DLPNO-MP2 Gradient
   Christoph Reimann      : Effective Core Potentials
   Marius Retegan         : Local ZFS, SOC
   Christoph Riplinger    : Optimizer, TS searches, QM/MM, DLPNO-CCSD(T), (RO)-DLPNO pert. Triples
   Tobias Risthaus        : Range-separated hybrids, TD-DFT gradient, RPA, STAB
   Michael Roemelt        : Original ROCIS implementation
   Masaaki Saitow         : Open-shell DLPNO-CCSD energy and density
   Barbara Sandhoefer     : DKH picture change effects
   Avijit Sen             : IP-ROCIS
   Kantharuban Sivalingam : CASSCF convergence, NEVPT2, FIC-MRCI
   Bernardo de Souza      : ESD, SOC TD-DFT
   Georgi Stoychev        : AutoAux, RI-MP2 NMR
   Willem Van den Heuvel  : Paramagnetic NMR
   Boris Wezisla          : Elementary symmetry handling
   Frank Wennmohs         : Technical directorship


 We gratefully acknowledge several colleagues who have allowed us to
 interface, adapt or use parts of their codes:
   Stefan Grimme, W. Hujo, H. Kruse,             : VdW corrections, initial TS optimization,
                  C. Bannwarth                     DFT functionals, gCP, sTDA/sTD-DF
   Ed Valeev, F. Pavosevic, A. Kumar             : LibInt (2-el integral package), F12 methods
   Garnet Chan, S. Sharma, J. Yang, R. Olivares  : DMRG
   Ulf Ekstrom                                   : XCFun DFT Library
   Mihaly Kallay                                 : mrcc  (arbitrary order and MRCC methods)
   Andreas Klamt, Michael Diedenhofen            : otool_cosmo (COSMO solvation model)
   Jiri Pittner, Ondrej Demel                    : Mk-CCSD
   Frank Weinhold                                : gennbo (NPA and NBO analysis)
   Christopher J. Cramer and Donald G. Truhlar   : smd solvation model
   Lars Goerigk                                  : TD-DFT with DH, B97 family of functionals
   V. Asgeirsson, H. Jonsson                     : NEB implementation
   FAccTs GmbH                                   : IRC, NEB, NEB-TS, Multilevel, MM, QM/MM, CI optimization
   S Lehtola, MJT Oliveira, MAL Marques          : LibXC Library


 Your calculation uses the libint2 library for the computation of 2-el integrals
 For citations please refer to: http://libint.valeyev.net

 Your ORCA version has been built with support for libXC version: 4.2.3
 For citations please refer to: https://tddft.org/programs/libxc/

 This ORCA versions uses:
   CBLAS   interface :  Fast vector & matrix operations
   LAPACKE interface :  Fast linear algebra routines
   SCALAPACK package :  Parallel linear algebra routines


Your calculation utilizes the atom-pairwise dispersion correction
with the Becke-Johnson damping scheme (D3BJ)
Cite in your paper:
S.Grimme, S.Ehrlich, L.Goerigk, J Comput Chem, (2011), 32, 1456–1465 
S.Grimme, J.Antony, S.Ehrlich and H.Krieg, J.Chem.Phys., 132, (2010), 154104 
   

----- Orbital basis set information -----
Your calculation utilizes the basis: def2-TZVP
   F. Weigend and R. Ahlrichs, Phys. Chem. Chem. Phys. 7, 3297 (2005).

================================================================================
                                        WARNINGS
                       Please study these warnings very carefully!
================================================================================


INFO   : the flag for use of LIBINT has been found!

================================================================================
                                       INPUT FILE
================================================================================
NAME = neb-0.inp
|  1> # neb-0
|  2> ! wb97x-d3bj Def2-TZVP SP Grid4 TightSCF
|  3> 
|  4> %pal
|  5>     nprocs 4
|  6> end
|  7> 
|  8> %output
|  9> Print[ P_Basis ] 2
| 10> Print[ P_MOs ] 1
| 11> end
| 12> 
| 13> *xyz -1 1
| 14> B 3.05495  5.38999  5.5298
| 15> C 4.34528  5.52832  1.93888
| 16> H 3.20539  6.60048  5.37104
| 17> H 1.92704  5.13131  5.9609
| 18> H 3.88266  4.94664  6.32833
| 19> H 3.21223  4.8632  4.4156
| 20> O 4.02066  4.41381  1.74534
| 21> O 4.64708  6.64588  2.1399
| 22> O 2.56592  7.94495  7.6808
| 23> H 3.3278  7.57487  8.22165
| 24> H 2.71393  7.53665  6.79237
| 25> *
| 26> 
| 27>                          ****END OF INPUT****
================================================================================

                       ****************************
                       * Single Point Calculation *
                       ****************************

---------------------------------
CARTESIAN COORDINATES (ANGSTROEM)
---------------------------------
  B      3.054950    5.389990    5.529800
  C      4.345280    5.528320    1.938880
  H      3.205390    6.600480    5.371040
  H      1.927040    5.131310    5.960900
  H      3.882660    4.946640    6.328330
  H      3.212230    4.863200    4.415600
  O      4.020660    4.413810    1.745340
  O      4.647080    6.645880    2.139900
  O      2.565920    7.944950    7.680800
  H      3.327800    7.574870    8.221650
  H      2.713930    7.536650    6.792370

----------------------------
CARTESIAN COORDINATES (A.U.)
----------------------------
  NO LB      ZA    FRAG     MASS         X           Y           Z
   0 B     5.0000    0    10.810    5.773019   10.185605   10.449808
   1 C     6.0000    0    12.011    8.211389   10.447011    3.663952
   2 H     1.0000    0     1.008    6.057309   12.473100   10.149795
   3 H     1.0000    0     1.008    3.641578    9.696771   11.264469
   4 H     1.0000    0     1.008    7.337164    9.347795   11.958811
   5 H     1.0000    0     1.008    6.070235    9.190116    8.344275
   6 O     8.0000    0    15.999    7.597946    8.340892    3.298215
   7 O     8.0000    0    15.999    8.781709   12.558893    4.043825
   8 O     8.0000    0    15.999    4.848886   15.013780   14.514608
   9 H     1.0000    0     1.008    6.288631   14.314430   15.536667
  10 H     1.0000    0     1.008    5.128584   14.242204   12.835719

--------------------------------
INTERNAL COORDINATES (ANGSTROEM)
--------------------------------
 B      0   0   0     0.000000000000     0.00000000     0.00000000
 C      1   0   0     3.818218582559     0.00000000     0.00000000
 H      1   2   0     1.230090635400    78.55879691     0.00000000
 H      1   2   3     1.234886035430   130.13369120   108.27996668
 H      1   2   3     1.232604246098   113.28926866   252.07925109
 H      1   2   3     1.242451746548    29.44723983   162.18554903
 O      2   1   3     1.176846810804    91.55516148   194.19947037
 O      2   1   3     1.174918139276    87.72814521    13.26681606
 O      3   1   2     2.748001586499   110.15232177   181.65576298
 H      9   3   1     1.004957244513    95.49547487    66.53313135
 H      9   3   1     0.988900255334     7.26965314   234.07435309

---------------------------
INTERNAL COORDINATES (A.U.)
---------------------------
 B      0   0   0     0.000000000000     0.00000000     0.00000000
 C      1   0   0     7.215387440486     0.00000000     0.00000000
 H      1   2   0     2.324534420808    78.55879691     0.00000000
 H      1   2   3     2.333596413566   130.13369120   108.27996668
 H      1   2   3     2.329284456635   113.28926866   252.07925109
 H      1   2   3     2.347893535588    29.44723983   162.18554903
 O      2   1   3     2.223918173999    91.55516148   194.19947037
 O      2   1   3     2.220273513008    87.72814521    13.26681606
 O      3   1   2     5.192970414064   110.15232177   181.65576298
 H      9   3   1     1.899093968430    95.49547487    66.53313135
 H      9   3   1     1.868750656346     7.26965314   234.07435309

---------------------
BASIS SET INFORMATION
---------------------
There are 4 groups of distinct atoms

 Group   1 Type B   : 11s6p2d1f contracted to 5s3p2d1f pattern {62111/411/11/1}
 Group   2 Type C   : 11s6p2d1f contracted to 5s3p2d1f pattern {62111/411/11/1}
 Group   3 Type H   : 5s1p contracted to 3s1p pattern {311/1}
 Group   4 Type O   : 11s6p2d1f contracted to 5s3p2d1f pattern {62111/411/11/1}

Atom   0B    basis set group =>   1
Atom   1C    basis set group =>   2
Atom   2H    basis set group =>   3
Atom   3H    basis set group =>   3
Atom   4H    basis set group =>   3
Atom   5H    basis set group =>   3
Atom   6O    basis set group =>   4
Atom   7O    basis set group =>   4
Atom   8O    basis set group =>   4
Atom   9H    basis set group =>   3
Atom  10H    basis set group =>   3

-------------------------
BASIS SET IN INPUT FORMAT
-------------------------

 # Basis set for element : H 
 NewGTO H 
 S 3 
   1      34.0613410000      0.0254393072
   2       5.1235746000      0.1900859489
   3       1.1646626000      0.8524411301
 S 1 
   1       0.3272304100      1.0000000000
 S 1 
   1       0.1030724100      1.0000000000
 P 1 
   1       0.8000000000      1.0000000000
  end;

 # Basis set for element : B 
 NewGTO B 
 S 6 
   1    8564.8660687000      0.0006375464
   2    1284.1516263000      0.0049364466
   3     292.2787160400      0.0255181244
   4      82.7754691760      0.1014577835
   5      27.0179392690      0.3088586856
   6       9.8149619660      0.6523463970
 S 2 
   1       3.9318559059      0.6715277955
   2       1.6595599712      0.3585034506
 S 1 
   1       0.3576296524      1.0000000000
 S 1 
   1       0.1424627750      1.0000000000
 S 1 
   1       0.0605605948      1.0000000000
 P 4 
   1      22.4538758030      0.0111890363
   2       5.1045058330      0.0730161447
   3       1.4986081344      0.2927442869
   4       0.5092783132      0.7389636283
 P 1 
   1       0.1814707780      1.0000000000
 P 1 
   1       0.0646218939      1.0000000000
 D 1 
   1       0.6610000000      1.0000000000
 D 1 
   1       0.1990000000      1.0000000000
 F 1 
   1       0.4900000000      1.0000000000
  end;

 # Basis set for element : C 
 NewGTO C 
 S 6 
   1   13575.3496820000      0.0006064549
   2    2035.2333680000      0.0046979088
   3     463.2256235900      0.0243324776
   4     131.2001959800      0.0973999683
   5      42.8530158910      0.3019558425
   6      15.5841857660      0.6623360915
 S 2 
   1       6.2067138508      0.6559530854
   2       2.5764896527      0.3758563329
 S 1 
   1       0.5769633942      1.0000000000
 S 1 
   1       0.2297283136      1.0000000000
 S 1 
   1       0.0951644400      1.0000000000
 P 4 
   1      34.6972322440      0.0113272200
   2       7.9582622826      0.0761696592
   3       2.3780826883      0.3019225220
   4       0.8143320818      0.7278502735
 P 1 
   1       0.2888754725      1.0000000000
 P 1 
   1       0.1005682367      1.0000000000
 D 1 
   1       1.0970000000      1.0000000000
 D 1 
   1       0.3180000000      1.0000000000
 F 1 
   1       0.7610000000      1.0000000000
  end;

 # Basis set for element : O 
 NewGTO O 
 S 6 
   1   27032.3826310000      0.0005722733
   2    4052.3871392000      0.0044353233
   3     922.3272271000      0.0230201076
   4     261.2407098900      0.0928224906
   5      85.3546413510      0.2937850002
   6      31.0350352450      0.6740160450
 S 2 
   1      12.2608607280      0.6383993702
   2       4.9987076005      0.3953458713
 S 1 
   1       1.1703108158      1.0000000000
 S 1 
   1       0.4647474099      1.0000000000
 S 1 
   1       0.1850453636      1.0000000000
 P 4 
   1      63.2749548010      0.0120183321
   2      14.6270493790      0.0830054217
   3       4.4501223456      0.3199174393
   4       1.5275799647      0.7071554292
 P 1 
   1       0.5293511794      1.0000000000
 P 1 
   1       0.1747842127      1.0000000000
 D 1 
   1       2.3140000000      1.0000000000
 D 1 
   1       0.6450000000      1.0000000000
 F 1 
   1       1.4280000000      1.0000000000
  end;



           ************************************************************
           *        Program running with 4 parallel MPI-processes     *
           *              working on a common directory               *
           ************************************************************
------------------------------------------------------------------------------
                           ORCA GTO INTEGRAL CALCULATION
------------------------------------------------------------------------------

                         BASIS SET STATISTICS AND STARTUP INFO

 # of primitive gaussian shells          ...  136
 # of primitive gaussian functions       ...  278
 # of contracted shells                  ...   79
 # of contracted basis functions         ...  191
 Highest angular momentum                ...    3
 Maximum contraction depth               ...    6
 Integral package used                   ... LIBINT
 Integral threshhold            Thresh   ...  2.500e-11
 Primitive cut-off              TCut     ...  2.500e-12


------------------------------ INTEGRAL EVALUATION ----------------------------


 * One electron integrals 
 Pre-screening matrix                    ... done
 Shell pair data                         ... done (   0.001 sec)



           ************************************************************
           *        Program running with 4 parallel MPI-processes     *
           *              working on a common directory               *
           ************************************************************
-------------------------------------------------------------------------------
                                 ORCA SCF
-------------------------------------------------------------------------------

------------
SCF SETTINGS
------------
Hamiltonian:
 Density Functional     Method          .... DFT(GTOs)
 Exchange Functional    Exchange        .... WB97X-V
 Correlation Functional Correlation     .... WB97X-V
 Gradients option       PostSCFGGA      .... off
 Hybrid DFT is turned on
   Fraction HF Exchange ScalHFX         ....  0.167000
   Scaling of DF-GGA-X  ScalDFX         ....  0.000000
   Scaling of DF-GGA-C  ScalDFC         ....  1.000000
   Scaling of DF-LDA-C  ScalLDAC        ....  1.000000
   Perturbative correction              ....  0.000000
   Density functional embedding theory  .... OFF
 Long-range corrected/Screened/Range-Separated Hybrid DFT is turned on
   Amount of maximum screened exact exchange              ....  0.833000
   Range separation parameter mu (erf(mu*r12)/r12)        ....  0.300000


General Settings:
 Integral files         IntName         .... neb-0
 Hartree-Fock type      HFTyp           .... RHF
 Total Charge           Charge          ....   -1
 Multiplicity           Mult            ....    1
 Number of Electrons    NEL             ....   42
 Basis Dimension        Dim             ....  191
 Nuclear Repulsion      ENuc            ....    135.8732465384 Eh

Convergence Acceleration:
 DIIS                   CNVDIIS         .... on
   Start iteration      DIISMaxIt       ....    12
   Startup error        DIISStart       ....  0.200000
   # of expansion vecs  DIISMaxEq       ....     5
   Bias factor          DIISBfac        ....   1.050
   Max. coefficient     DIISMaxC        ....  10.000
 Newton-Raphson         CNVNR           .... off
 SOSCF                  CNVSOSCF        .... on
   Start iteration      SOSCFMaxIt      ....   150
   Startup grad/error   SOSCFStart      ....  0.003300
 Level Shifting         CNVShift        .... on
   Level shift para.    LevelShift      ....    0.2500
   Turn off err/grad.   ShiftErr        ....    0.0010
 Zerner damping         CNVZerner       .... off
 Static damping         CNVDamp         .... on
   Fraction old density DampFac         ....    0.7000
   Max. Damping (<1)    DampMax         ....    0.9800
   Min. Damping (>=0)   DampMin         ....    0.0000
   Turn off err/grad.   DampErr         ....    0.1000
 Fernandez-Rico         CNVRico         .... off

SCF Procedure:
 Maximum # iterations   MaxIter         ....   125
 SCF integral mode      SCFMode         .... Direct
   Integral package                     .... LIBINT
 Reset frequency        DirectResetFreq ....    20
 Integral Threshold     Thresh          ....  2.500e-11 Eh
 Primitive CutOff       TCut            ....  2.500e-12 Eh

Convergence Tolerance:
 Convergence Check Mode ConvCheckMode   .... Total+1el-Energy
 Convergence forced     ConvForced      .... 0
 Energy Change          TolE            ....  1.000e-08 Eh
 1-El. energy change                    ....  1.000e-05 Eh
 Orbital Gradient       TolG            ....  1.000e-05
 Orbital Rotation angle TolX            ....  1.000e-05
 DIIS Error             TolErr          ....  5.000e-07


Diagonalization of the overlap matrix:
Smallest eigenvalue                        ... 5.165e-04
Time for diagonalization                   ...    0.006 sec
Threshold for overlap eigenvalues          ... 1.000e-08
Number of eigenvalues below threshold      ... 0
Time for construction of square roots      ...    0.002 sec
Total time needed                          ...    0.008 sec

-------------------
DFT GRID GENERATION
-------------------

General Integration Accuracy     IntAcc      ...  4.670
Radial Grid Type                 RadialGrid  ... Gauss-Chebyshev
Angular Grid (max. acc.)         AngularGrid ... Lebedev-302
Angular grid pruning method      GridPruning ... 3 (G Style)
Weight generation scheme         WeightScheme... Becke
Basis function cutoff            BFCut       ...    1.0000e-11
Integration weight cutoff        WCut        ...    1.0000e-14
Grids for H and He will be reduced by one unit

# of grid points (after initial pruning)     ...  51340 (   0.0 sec)
# of grid points (after weights+screening)   ...  49090 (   0.0 sec)
nearest neighbour list constructed           ...    0.0 sec
Grid point re-assignment to atoms done       ...    0.0 sec
Grid point division into batches done        ...    0.2 sec
Reduced shell lists constructed in    0.2 sec

Total number of grid points                  ...    49090
Total number of batches                      ...      772
Average number of points per batch           ...       63
Average number of grid points per atom       ...     4463
Average number of shells per batch           ...    46.38 (58.71%)
Average number of basis functions per batch  ...   108.18 (56.64%)
Average number of large shells per batch     ...    36.35 (78.36%)
Average number of large basis fcns per batch ...    84.12 (77.76%)
Maximum spatial batch extension              ...  18.98, 21.69, 20.64 au
Average spatial batch extension              ...   0.63,  0.60,  0.67 au

Time for grid setup =    0.278 sec

------------------------------
INITIAL GUESS: MODEL POTENTIAL
------------------------------
Loading Hartree-Fock densities                     ... done
Calculating cut-offs                               ... done
Setting up the integral package                    ... done
Initializing the effective Hamiltonian             ... done
Starting the Coulomb interaction                   ... done (   0.0 sec)
Reading the grid                                   ... done
Mapping shells                                     ... done
Starting the XC term evaluation                    ... done (   0.1 sec)
  promolecular density results
     # of electrons  =     40.997231446
     EX              =    -23.849031273
     EC              =     -1.668657228
     EX+EC           =    -25.517688500
Transforming the Hamiltonian                       ... done (   0.0 sec)
Diagonalizing the Hamiltonian                      ... done (   0.0 sec)
Back transforming the eigenvectors                 ... done (   0.0 sec)
Now organizing SCF variables                       ... done
                      ------------------
                      INITIAL GUESS DONE (   0.5 sec)
                      ------------------
--------------
SCF ITERATIONS
--------------
ITER       Energy         Delta-E        Max-DP      RMS-DP      [F,P]     Damp
               ***  Starting incremental Fock matrix formation  ***
  0   -292.3578388375   0.000000000000 0.03117211  0.00073496  0.3430530 0.7000
  1   -292.4030120955  -0.045173258002 0.02166118  0.00064978  0.2353633 0.7000
                               ***Turning on DIIS***
  2   -292.4301036545  -0.027091558954 0.01836748  0.00046592  0.1615291 0.7000
  3   -292.4467280460  -0.016624391545 0.01498675  0.00031621  0.1112700 0.7000
  4   -292.4578075524  -0.011079506361 0.03702255  0.00076843  0.0771410 0.0000
                      *** Initiating the SOSCF procedure ***
                           *** Shutting down DIIS ***
                      *** Re-Reading the Fockian *** 
                      *** Removing any level shift *** 
ITER      Energy       Delta-E        Grad      Rot      Max-DP    RMS-DP
  5   -292.48305752  -0.0252499690  0.001262  0.001262  0.003147  0.000075
               *** Restarting incremental Fock matrix formation ***
  6   -292.48309448  -0.0000369561  0.000569  0.000916  0.002696  0.000052
  7   -292.48310451  -0.0000100370  0.000391  0.000715  0.002135  0.000041
  8   -292.48310583  -0.0000013165  0.000312  0.000204  0.000588  0.000013
  9   -292.48310674  -0.0000009102  0.000009  0.000015  0.000039  0.000001
 10   -292.48310674  -0.0000000028  0.000015  0.000013  0.000021  0.000001
 11   -292.48310675  -0.0000000021  0.000004  0.000003  0.000005  0.000000
                  ***Gradient check signals convergence***
              ***Rediagonalizing the Fockian in SOSCF/NRSCF***

               *****************************************************
               *                     SUCCESS                       *
               *           SCF CONVERGED AFTER  12 CYCLES          *
               *****************************************************

Setting up the final grid:

General Integration Accuracy     IntAcc      ...  5.010
Radial Grid Type                 RadialGrid  ... Gauss-Chebyshev
Angular Grid (max. acc.)         AngularGrid ... Lebedev-434
Angular grid pruning method      GridPruning ... 3 (G Style)
Weight generation scheme         WeightScheme... Becke
Basis function cutoff            BFCut       ...    1.0000e-11
Integration weight cutoff        WCut        ...    1.0000e-14
Grids for H and He will be reduced by one unit

# of grid points (after initial pruning)     ...  93966 (   0.0 sec)
# of grid points (after weights+screening)   ...  89718 (   0.0 sec)
nearest neighbour list constructed           ...    0.0 sec
Grid point re-assignment to atoms done       ...    0.0 sec
Grid point division into batches done        ...    0.6 sec
Reduced shell lists constructed in    0.7 sec

Total number of grid points                  ...    89718
Total number of batches                      ...     1407
Average number of points per batch           ...       63
Average number of grid points per atom       ...     8156
Average number of shells per batch           ...    45.44 (57.53%)
Average number of basis functions per batch  ...   105.27 (55.12%)
Average number of large shells per batch     ...    35.52 (78.16%)
Average number of large basis fcns per batch ...    81.59 (77.50%)
Maximum spatial batch extension              ...  21.73, 20.22, 17.28 au
Average spatial batch extension              ...   0.53,  0.49,  0.52 au

Final grid set up in    0.8 sec
Final integration                            ... done (   0.2 sec)
Change in XC energy                          ...     0.000040440
Integrated number of electrons               ...    42.000000560
Previous integrated no of electrons          ...    42.000116265

----------------
TOTAL SCF ENERGY
----------------

Total Energy       :         -292.48306631 Eh           -7958.86886 eV

Components:
Nuclear Repulsion  :          135.87324654 Eh            3697.29901 eV
Electronic Energy  :         -428.35631284 Eh          -11656.16786 eV
One Electron Energy:         -674.26040613 Eh          -18347.55842 eV
Two Electron Energy:          245.90409329 Eh            6691.39056 eV

Virial components:
Potential Energy   :         -583.57491570 Eh          -15879.88077 eV
Kinetic Energy     :          291.09184939 Eh            7921.01192 eV
Virial Ratio       :            2.00477931


DFT components:
N(Alpha)           :       21.000000280219 electrons
N(Beta)            :       21.000000280219 electrons
N(Total)           :       42.000000560438 electrons
E(X)               :      -24.450121175016 Eh       
E(C)               :       -1.720290062984 Eh       
E(XC)              :      -26.170411238000 Eh       
DFET-embed. en.    :        0.000000000000 Eh       

---------------
SCF CONVERGENCE
---------------

  Last Energy change         ...   -9.8964e-11  Tolerance :   1.0000e-08
  Last MAX-Density change    ...    1.5342e-06  Tolerance :   1.0000e-07
  Last RMS-Density change    ...    3.9180e-08  Tolerance :   5.0000e-09
  Last Orbital Gradient      ...    9.5224e-07  Tolerance :   1.0000e-05
  Last Orbital Rotation      ...    7.0906e-07  Tolerance :   1.0000e-05

             **** THE GBW FILE WAS UPDATED (neb-0.gbw) ****
             **** DENSITY FILE WAS UPDATED (neb-0.scfp) ****
             **** ENERGY FILE WAS UPDATED (neb-0.en.tmp) ****
             **** THE GBW FILE WAS UPDATED (neb-0.gbw) ****
             **** DENSITY FILE WAS UPDATED (neb-0.scfp) ****
----------------
ORBITAL ENERGIES
----------------

  NO   OCC          E(Eh)            E(eV) 
   0   2.0000     -19.174587      -521.7670 
   1   2.0000     -19.173618      -521.7407 
   2   2.0000     -19.052130      -518.4348 
   3   2.0000     -10.345128      -281.5052 
   4   2.0000      -6.563799      -178.6101 
   5   2.0000      -1.165816       -31.7235 
   6   2.0000      -1.121497       -30.5175 
   7   2.0000      -0.962424       -26.1889 
   8   2.0000      -0.564947       -15.3730 
   9   2.0000      -0.514333       -13.9957 
  10   2.0000      -0.510407       -13.8889 
  11   2.0000      -0.508746       -13.8437 
  12   2.0000      -0.465330       -12.6623 
  13   2.0000      -0.410541       -11.1714 
  14   2.0000      -0.357467        -9.7272 
  15   2.0000      -0.355809        -9.6820 
  16   2.0000      -0.341632        -9.2963 
  17   2.0000      -0.262569        -7.1449 
  18   2.0000      -0.198642        -5.4053 
  19   2.0000      -0.189209        -5.1486 
  20   2.0000      -0.186378        -5.0716 
  21   0.0000       0.216912         5.9025 
  22   0.0000       0.241582         6.5738 
  23   0.0000       0.250199         6.8083 
  24   0.0000       0.256809         6.9881 
  25   0.0000       0.306413         8.3379 
  26   0.0000       0.322399         8.7729 
  27   0.0000       0.338285         9.2052 
  28   0.0000       0.361417         9.8347 
  29   0.0000       0.373736        10.1699 
  30   0.0000       0.385429        10.4881 
  31   0.0000       0.405049        11.0219 
  32   0.0000       0.424102        11.5404 
  33   0.0000       0.445011        12.1094 
  34   0.0000       0.470381        12.7997 
  35   0.0000       0.491330        13.3698 
  36   0.0000       0.508123        13.8267 
  37   0.0000       0.542100        14.7513 
  38   0.0000       0.567665        15.4469 
  39   0.0000       0.582831        15.8596 
  40   0.0000       0.621570        16.9138 
  41   0.0000       0.642347        17.4792 
  42   0.0000       0.647793        17.6274 
  43   0.0000       0.653421        17.7805 
  44   0.0000       0.678813        18.4714 
  45   0.0000       0.710417        19.3314 
  46   0.0000       0.721182        19.6244 
  47   0.0000       0.736420        20.0390 
  48   0.0000       0.757512        20.6129 
  49   0.0000       0.780187        21.2300 
  50   0.0000       0.796110        21.6633 
  51   0.0000       0.807266        21.9668 
  52   0.0000       0.818590        22.2750 
  53   0.0000       0.826113        22.4797 
  54   0.0000       0.832269        22.6472 
  55   0.0000       0.906578        24.6692 
  56   0.0000       0.923349        25.1256 
  57   0.0000       0.973391        26.4873 
  58   0.0000       1.000748        27.2317 
  59   0.0000       1.025338        27.9009 
  60   0.0000       1.037101        28.2209 
  61   0.0000       1.054023        28.6814 
  62   0.0000       1.097897        29.8753 
  63   0.0000       1.110409        30.2158 
  64   0.0000       1.138738        30.9866 
  65   0.0000       1.188903        32.3517 
  66   0.0000       1.193466        32.4759 
  67   0.0000       1.232992        33.5514 
  68   0.0000       1.257833        34.2274 
  69   0.0000       1.342074        36.5197 
  70   0.0000       1.428836        38.8806 
  71   0.0000       1.479226        40.2518 
  72   0.0000       1.495723        40.7007 
  73   0.0000       1.555436        42.3256 
  74   0.0000       1.570671        42.7401 
  75   0.0000       1.579059        42.9684 
  76   0.0000       1.612227        43.8709 
  77   0.0000       1.613211        43.8977 
  78   0.0000       1.630263        44.3617 
  79   0.0000       1.695578        46.1390 
  80   0.0000       1.704987        46.3950 
  81   0.0000       1.717685        46.7406 
  82   0.0000       1.862325        50.6764 
  83   0.0000       1.879266        51.1374 
  84   0.0000       1.880391        51.1680 
  85   0.0000       1.925713        52.4013 
  86   0.0000       1.937506        52.7222 
  87   0.0000       1.993333        54.2414 
  88   0.0000       2.015608        54.8475 
  89   0.0000       2.029011        55.2122 
  90   0.0000       2.047446        55.7138 
  91   0.0000       2.076183        56.4958 
  92   0.0000       2.108715        57.3811 
  93   0.0000       2.114874        57.5487 
  94   0.0000       2.122364        57.7525 
  95   0.0000       2.170966        59.0750 
  96   0.0000       2.182032        59.3761 
  97   0.0000       2.206525        60.0426 
  98   0.0000       2.230240        60.6879 
  99   0.0000       2.242480        61.0210 
 100   0.0000       2.294668        62.4411 
 101   0.0000       2.311754        62.9060 
 102   0.0000       2.333251        63.4910 
 103   0.0000       2.435351        66.2693 
 104   0.0000       2.442140        66.4540 
 105   0.0000       2.493226        67.8441 
 106   0.0000       2.498039        67.9751 
 107   0.0000       2.581247        70.2393 
 108   0.0000       2.603247        70.8380 
 109   0.0000       2.624356        71.4124 
 110   0.0000       2.627685        71.5030 
 111   0.0000       2.637452        71.7687 
 112   0.0000       2.662540        72.4514 
 113   0.0000       2.802722        76.2660 
 114   0.0000       2.809261        76.4439 
 115   0.0000       2.810982        76.4907 
 116   0.0000       2.840054        77.2818 
 117   0.0000       2.865430        77.9723 
 118   0.0000       2.879712        78.3610 
 119   0.0000       2.908684        79.1493 
 120   0.0000       2.916875        79.3722 
 121   0.0000       2.938054        79.9485 
 122   0.0000       2.960886        80.5698 
 123   0.0000       2.964239        80.6611 
 124   0.0000       2.979493        81.0761 
 125   0.0000       3.065742        83.4231 
 126   0.0000       3.075060        83.6766 
 127   0.0000       3.118997        84.8722 
 128   0.0000       3.119398        84.8831 
 129   0.0000       3.122969        84.9803 
 130   0.0000       3.138534        85.4039 
 131   0.0000       3.151881        85.7671 
 132   0.0000       3.233942        88.0000 
 133   0.0000       3.251215        88.4701 
 134   0.0000       3.262724        88.7832 
 135   0.0000       3.291570        89.5682 
 136   0.0000       3.433876        93.4405 
 137   0.0000       3.443209        93.6945 
 138   0.0000       3.519975        95.7834 
 139   0.0000       3.524051        95.8943 
 140   0.0000       3.536676        96.2379 
 141   0.0000       3.549862        96.5967 
 142   0.0000       3.571447        97.1840 
 143   0.0000       3.789646       103.1215 
 144   0.0000       3.942472       107.2801 
 145   0.0000       4.032813       109.7384 
 146   0.0000       4.045224       110.0762 
 147   0.0000       4.152765       113.0025 
 148   0.0000       4.953217       134.7839 
 149   0.0000       5.112091       139.1071 
 150   0.0000       5.293161       144.0342 
 151   0.0000       5.293670       144.0481 
 152   0.0000       5.355392       145.7276 
 153   0.0000       5.355855       145.7402 
 154   0.0000       5.372456       146.1920 
 155   0.0000       5.402009       146.9961 
 156   0.0000       5.403890       147.0473 
 157   0.0000       5.473907       148.9526 
 158   0.0000       5.616865       152.8427 
 159   0.0000       5.669177       154.2662 
 160   0.0000       5.677751       154.4995 
 161   0.0000       5.978481       162.6827 
 162   0.0000       5.979855       162.7201 
 163   0.0000       6.177919       168.1097 
 164   0.0000       6.191655       168.4835 
 165   0.0000       6.288096       171.1078 
 166   0.0000       6.291564       171.2022 
 167   0.0000       6.412947       174.5052 
 168   0.0000       6.492635       176.6736 
 169   0.0000       6.494975       176.7373 
 170   0.0000       6.500981       176.9007 
 171   0.0000       6.508755       177.1122 
 172   0.0000       6.584763       179.1805 
 173   0.0000       6.632001       180.4659 
 174   0.0000       6.700607       182.3328 
 175   0.0000       6.710147       182.5924 
 176   0.0000       6.710562       182.6037 
 177   0.0000       6.961886       189.4426 
 178   0.0000       6.997145       190.4020 
 179   0.0000       7.060701       192.1314 
 180   0.0000       7.076976       192.5743 
 181   0.0000       7.201849       195.9723 
 182   0.0000       7.215784       196.3515 
 183   0.0000       7.299016       198.6163 
 184   0.0000       7.546820       205.3594 
 185   0.0000       7.672634       208.7830 
 186   0.0000      15.003982       408.2791 
 187   0.0000      24.001507       653.1142 
 188   0.0000      43.641060      1187.5336 
 189   0.0000      44.041915      1198.4414 
 190   0.0000      44.234106      1203.6712 
------------------
MOLECULAR ORBITALS
------------------
                      0         1         2         3         4         5   
                 -19.17459 -19.17362 -19.05213 -10.34513  -6.56380  -1.16582
                   2.00000   2.00000   2.00000   2.00000   2.00000   2.00000
                  --------  --------  --------  --------  --------  --------
  0B   1s         0.000003 -0.000001 -0.000001  0.000000  0.497414  0.000059
  0B   2s        -0.000014  0.000004  0.000001 -0.000002  0.578506  0.000104
  0B   3s         0.000121 -0.000051 -0.000293  0.000068  0.035070 -0.000175
  0B   4s        -0.000254  0.000163  0.001558 -0.000395 -0.009417  0.000200
  0B   5s        -0.000535  0.000242 -0.000999  0.001329 -0.011152 -0.002034
  0B   1pz       -0.000038  0.000011  0.000019 -0.000016 -0.000123  0.000179
  0B   1px        0.000010 -0.000004 -0.000019 -0.000001  0.000105 -0.000044
  0B   1py       -0.000004 -0.000012 -0.000071 -0.000017  0.000210  0.000031
  0B   2pz        0.000218 -0.000121 -0.000548 -0.000010  0.000960  0.000103
  0B   2px       -0.000028  0.000105  0.000121  0.000001 -0.000145 -0.000073
  0B   2py        0.000053 -0.000024  0.000623  0.000144  0.000208  0.000127
  0B   3pz        0.000123 -0.000103 -0.000723 -0.000339  0.000277  0.000437
  0B   3px       -0.000084 -0.000022  0.000261  0.000262  0.000009 -0.000186
  0B   3py       -0.000135 -0.000033 -0.000397  0.000220  0.000390  0.000041
  0B   1dz2       0.000010  0.000001 -0.000051 -0.000026 -0.000000 -0.000019
  0B   1dxz      -0.000015  0.000008  0.000001  0.000021 -0.000006  0.000003
  0B   1dyz      -0.000024  0.000011 -0.000004  0.000034 -0.000218 -0.000020
  0B   1dx2y2     0.000003 -0.000013 -0.000021 -0.000004 -0.000050 -0.000003
  0B   1dxy       0.000005 -0.000003 -0.000007 -0.000001  0.000062  0.000004
  0B   2dz2      -0.000096  0.000137  0.000118  0.000128 -0.000316 -0.000175
  0B   2dxz       0.000085  0.000013 -0.000122 -0.000119  0.000088  0.000042
  0B   2dyz      -0.000001  0.000066 -0.000011 -0.000043 -0.000451 -0.000035
  0B   2dx2y2     0.000050  0.000014 -0.000329 -0.000127  0.000097 -0.000014
  0B   2dxy      -0.000023 -0.000045  0.000156  0.000025  0.000050  0.000031
  0B   1f0        0.000005 -0.000024 -0.000023  0.000001 -0.001455  0.000009
  0B   1f+1      -0.000008  0.000013 -0.000022  0.000003  0.001277 -0.000011
  0B   1f-1       0.000014 -0.000042 -0.000127 -0.000010 -0.002262 -0.000015
  0B   1f+2      -0.000008  0.000009  0.000016 -0.000015  0.002253  0.000019
  0B   1f-2       0.000001  0.000010  0.000020  0.000009 -0.000390  0.000005
  0B   1f+3      -0.000002 -0.000012  0.000038 -0.000005  0.001257  0.000020
  0B   1f-3       0.000005 -0.000022  0.000089 -0.000012  0.002260  0.000035
  1C   1s        -0.000026  0.000027  0.000001 -0.468587  0.000000  0.074379
  1C   2s         0.000196 -0.000204 -0.000003 -0.606736 -0.000000  0.156638
  1C   3s         0.003152 -0.003248  0.000014 -0.039635 -0.000123 -0.266505
  1C   4s        -0.024299  0.024985 -0.000024  0.015028  0.001165 -0.109474
  1C   5s         0.001394 -0.001475  0.000126 -0.003884 -0.000033 -0.010051
  1C   1pz       -0.000140 -0.000155  0.000010 -0.000038  0.000019 -0.000041
  1C   1px       -0.000235 -0.000238 -0.000009  0.000035  0.000002 -0.000054
  1C   1py       -0.000860 -0.000822  0.000002 -0.000034 -0.000003 -0.005382
  1C   2pz       -0.000055  0.000142 -0.000053  0.000249 -0.000027  0.002179
  1C   2px        0.000184 -0.000034  0.000081  0.000012 -0.000134 -0.001170
  1C   2py        0.000230  0.000310  0.000077 -0.000070 -0.000223 -0.002826
  1C   3pz        0.000824  0.000503  0.000074 -0.000591  0.000157  0.001227
  1C   3px        0.001037  0.001164  0.000027  0.000147  0.000184 -0.000465
  1C   3py        0.003943  0.003817  0.000327  0.000003  0.000460  0.000058
  1C   1dz2       0.000396 -0.000405  0.000002  0.002302  0.000014  0.014066
  1C   1dxz      -0.000066  0.000066  0.000008 -0.000405 -0.000027 -0.002386
  1C   1dyz      -0.000238  0.000249  0.000001 -0.001373  0.000012 -0.008471
  1C   1dx2y2     0.000626 -0.000643  0.000005  0.003568 -0.000018  0.022065
  1C   1dxy      -0.000375  0.000399 -0.000007 -0.002170  0.000016 -0.013429
  1C   2dz2       0.004853 -0.005015 -0.000029  0.000633 -0.000223 -0.000663
  1C   2dxz      -0.000823  0.000857 -0.000030 -0.000069  0.000103 -0.000291
  1C   2dyz      -0.002974  0.002967 -0.000054 -0.000407 -0.000043  0.000743
  1C   2dx2y2     0.007665 -0.007803 -0.000019  0.001098 -0.000143 -0.002102
  1C   2dxy      -0.004596  0.004826  0.000048 -0.000676  0.000086  0.001375
  1C   1f0       -0.000270 -0.000271  0.000008 -0.000022 -0.000002  0.000183
  1C   1f+1      -0.000160 -0.000156 -0.000006 -0.000004  0.000022 -0.000097
  1C   1f-1      -0.000581 -0.000551 -0.000004  0.000018  0.000016  0.000158
  1C   1f+2      -0.000303 -0.000302  0.000013 -0.000016  0.000003  0.000221
  1C   1f-2       0.000182  0.000188 -0.000001  0.000025 -0.000008 -0.000001
  1C   1f+3       0.000634  0.000621  0.000008  0.000031 -0.000028  0.000049
  1C   1f-3       0.000602  0.000565 -0.000010 -0.000040 -0.000011 -0.000441
  2H   1s         0.000012 -0.000020 -0.000017 -0.000001 -0.000342 -0.000034
  2H   2s         0.000002  0.000170 -0.000634 -0.000036 -0.006250 -0.000295
  2H   3s         0.000162 -0.000455 -0.001353 -0.000563  0.006399  0.000400
  2H   1pz       -0.000008 -0.000003 -0.000078  0.000018 -0.000359  0.000013
  2H   1px        0.000003  0.000006  0.000033 -0.000004  0.000346 -0.000004
  2H   1py       -0.000004  0.000005  0.000133  0.000013  0.002740  0.000047
  3H   1s         0.000001 -0.000011  0.000036 -0.000013 -0.000356  0.000013
  3H   2s        -0.000018  0.000126 -0.000104  0.000146 -0.006185 -0.000165
  3H   3s         0.000034 -0.000112  0.000535 -0.000109  0.006400  0.000434
  3H   1pz        0.000014 -0.000012 -0.000036 -0.000032  0.000962  0.000017
  3H   1px       -0.000003  0.000014 -0.000041  0.000010 -0.002479 -0.000018
  3H   1py       -0.000003 -0.000006 -0.000014  0.000006 -0.000570  0.000001
  4H   1s         0.000004  0.000004  0.000011 -0.000018 -0.000365  0.000005
  4H   2s        -0.000064 -0.000051  0.000107  0.000216 -0.006249 -0.000106
  4H   3s         0.000103 -0.000006  0.000301 -0.000380  0.006328  0.000590
  4H   1pz        0.000008 -0.000001 -0.000019 -0.000024  0.001791  0.000013
  4H   1px       -0.000002  0.000006  0.000031  0.000002  0.001837 -0.000001
  4H   1py       -0.000003 -0.000010 -0.000012  0.000010 -0.000985  0.000003
  5H   1s         0.000041 -0.000014  0.000011 -0.000010 -0.000230 -0.000369
  5H   2s         0.000040 -0.000143 -0.000426  0.000012 -0.005549 -0.000685
  5H   3s         0.000471  0.000030 -0.000410 -0.000045  0.007999  0.000875
  5H   1pz        0.000035 -0.000056 -0.000067 -0.000039 -0.002251  0.000111
  5H   1px       -0.000009  0.000014  0.000014  0.000008  0.000322 -0.000050
  5H   1py       -0.000003 -0.000022 -0.000068 -0.000011 -0.001039 -0.000023
  6O   1s         0.005083  0.436373 -0.000001  0.000106  0.000000  0.060262
  6O   2s         0.007500  0.638576 -0.000008  0.000337  0.000008  0.141625
  6O   3s        -0.001064  0.035716  0.000040 -0.002976 -0.000047 -0.205623
  6O   4s         0.010306 -0.032205 -0.000143  0.007459 -0.000005 -0.270417
  6O   5s         0.008418  0.007113  0.000356 -0.001742 -0.000601 -0.083155
  6O   1pz       -0.000044  0.000378  0.000001 -0.000123 -0.000031 -0.013153
  6O   1px       -0.000065  0.000793 -0.000001 -0.000225  0.000018 -0.024801
  6O   1py       -0.000193  0.002596 -0.000006 -0.000767  0.000023 -0.083919
  6O   2pz        0.000983 -0.001249 -0.000006  0.000925  0.000107 -0.010011
  6O   2px        0.001676 -0.002208 -0.000003  0.001675 -0.000112 -0.020345
  6O   2py        0.005488 -0.007413  0.000023  0.005766 -0.000234 -0.067383
  6O   3pz        0.000154 -0.000024 -0.000014 -0.000130 -0.000653 -0.000294
  6O   3px        0.000614 -0.000053  0.000042 -0.000502  0.000141 -0.002973
  6O   3py        0.001715 -0.000148  0.000044 -0.001596 -0.000196 -0.008728
  6O   1dz2      -0.000067 -0.000186  0.000002  0.000029  0.000018  0.002425
  6O   1dxz       0.000010  0.000032  0.000000 -0.000004 -0.000008 -0.000393
  6O   1dyz       0.000048  0.000107  0.000002 -0.000015  0.000016 -0.001334
  6O   1dx2y2    -0.000115 -0.000284  0.000001  0.000043 -0.000005  0.003715
  6O   1dxy       0.000060  0.000186 -0.000002 -0.000030 -0.000001 -0.002392
  6O   2dz2      -0.000410  0.000736 -0.000007 -0.001549 -0.000045  0.005341
  6O   2dxz       0.000078 -0.000130  0.000000  0.000249  0.000018 -0.000968
  6O   2dyz       0.000204 -0.000437 -0.000003  0.000869 -0.000086 -0.002669
  6O   2dx2y2    -0.000573  0.001131 -0.000010 -0.002395  0.000056  0.007709
  6O   2dxy       0.000458 -0.000739  0.000002  0.001516 -0.000006 -0.005191
  6O   1f0       -0.000035  0.000041 -0.000002 -0.000201  0.000001  0.000397
  6O   1f+1      -0.000024  0.000024  0.000001 -0.000133  0.000003  0.000253
  6O   1f-1      -0.000073  0.000082  0.000000 -0.000456  0.000002  0.000880
  6O   1f+2      -0.000036  0.000045 -0.000002 -0.000223  0.000002  0.000416
  6O   1f-2       0.000027 -0.000029  0.000002  0.000141 -0.000005 -0.000287
  6O   1f+3       0.000093 -0.000092 -0.000002  0.000516  0.000004 -0.001000
  6O   1f-3       0.000063 -0.000082  0.000003  0.000450 -0.000004 -0.000823
  7O   1s        -0.436373  0.005099  0.000001  0.000107  0.000000  0.062946
  7O   2s        -0.638575  0.007400  0.000003  0.000339  0.000013  0.147930
  7O   3s        -0.035694  0.001898 -0.000021 -0.002977 -0.000122 -0.214918
  7O   4s         0.031984 -0.011105  0.000084  0.007485  0.000340 -0.281039
  7O   5s        -0.007324 -0.008281 -0.000435 -0.001650 -0.000995 -0.085969
  7O   1pz        0.000535 -0.000041  0.000008  0.000146 -0.000031  0.017234
  7O   1px        0.000669 -0.000061 -0.000002  0.000205  0.000008  0.023320
  7O   1py        0.002606 -0.000261 -0.000001  0.000767 -0.000018  0.087807
  7O   2pz       -0.001355  0.001015 -0.000012 -0.001112  0.000143  0.014128
  7O   2px       -0.001931  0.001468 -0.000001 -0.001571 -0.000027  0.018103
  7O   2py       -0.007325  0.005739  0.000009 -0.005797  0.000078  0.069642
  7O   3pz        0.000010  0.000447  0.000139  0.000395 -0.000151  0.002988
  7O   3px       -0.000031  0.000363 -0.000016  0.000389  0.000158  0.001765
  7O   3py       -0.000111  0.001768  0.000087  0.001568  0.000205  0.008541
  7O   1dz2       0.000186  0.000066 -0.000001  0.000027  0.000001  0.002467
  7O   1dxz      -0.000030 -0.000010  0.000004 -0.000005 -0.000005 -0.000429
  7O   1dyz      -0.000115 -0.000034  0.000008 -0.000020  0.000000 -0.001614
  7O   1dx2y2     0.000299  0.000100 -0.000002  0.000044 -0.000004  0.003971
  7O   1dxy      -0.000169 -0.000072 -0.000003 -0.000023  0.000007 -0.002286
  7O   2dz2      -0.000722  0.000406 -0.000003 -0.001518  0.000003  0.005226
  7O   2dxz       0.000113 -0.000066 -0.000013  0.000266  0.000008 -0.001046
  7O   2dyz       0.000433 -0.000284 -0.000044  0.000988 -0.000007 -0.003489
  7O   2dx2y2    -0.001156  0.000688  0.000011 -0.002431  0.000011  0.008247
  7O   2dxy       0.000659 -0.000307  0.000021  0.001426 -0.000031 -0.004478
  7O   1f0        0.000036 -0.000038 -0.000003  0.000227 -0.000002 -0.000454
  7O   1f+1       0.000022 -0.000017  0.000001  0.000117  0.000003 -0.000239
  7O   1f-1       0.000082 -0.000075  0.000003  0.000433 -0.000003 -0.000892
  7O   1f+2       0.000041 -0.000045 -0.000005  0.000261  0.000002 -0.000523
  7O   1f-2      -0.000024  0.000022  0.000001 -0.000149  0.000003  0.000304
  7O   1f+3      -0.000087  0.000070 -0.000004 -0.000477  0.000001  0.000928
  7O   1f-3      -0.000084  0.000089  0.000003 -0.000474 -0.000004  0.000978
  8O   1s        -0.000001 -0.000002 -0.436391  0.000000  0.000001  0.000000
  8O   2s         0.000001  0.000002 -0.638882 -0.000003 -0.000007  0.000002
  8O   3s        -0.000018 -0.000037 -0.033186  0.000026  0.000042 -0.000012
  8O   4s         0.000054  0.000118  0.021831 -0.000074 -0.000060  0.000040
  8O   5s        -0.000083 -0.000283 -0.010550  0.000075  0.000148 -0.000085
  8O   1pz        0.000001  0.000001  0.000464 -0.000005 -0.000011  0.000001
  8O   1px        0.000000  0.000004 -0.001238 -0.000001 -0.000004  0.000001
  8O   1py       -0.000001 -0.000002  0.000971 -0.000002 -0.000028  0.000002
  8O   2pz       -0.000009 -0.000002 -0.001052  0.000032  0.000015 -0.000010
  8O   2px        0.000002 -0.000014  0.002004  0.000003  0.000036 -0.000006
  8O   2py        0.000000  0.000009 -0.001683  0.000013  0.000088 -0.000005
  8O   3pz        0.000018  0.000102  0.001223 -0.000015  0.000100  0.000020
  8O   3px        0.000002  0.000012 -0.000681 -0.000004 -0.000115  0.000001
  8O   3py       -0.000005  0.000023  0.000701 -0.000008 -0.000061  0.000016
  8O   1dz2       0.000000  0.000003 -0.000077  0.000001  0.000012  0.000000
  8O   1dxz      -0.000000 -0.000000 -0.000078 -0.000001 -0.000011  0.000000
  8O   1dyz      -0.000001  0.000002 -0.000039  0.000001  0.000021 -0.000000
  8O   1dx2y2     0.000000 -0.000000 -0.000041  0.000000 -0.000002 -0.000000
  8O   1dxy       0.000001 -0.000000  0.000105 -0.000000 -0.000005 -0.000000
  8O   2dz2       0.000002 -0.000013  0.000463 -0.000010  0.000005  0.000001
  8O   2dxz       0.000000  0.000003  0.000404  0.000005  0.000046 -0.000002
  8O   2dyz       0.000003 -0.000009  0.000231 -0.000009 -0.000064  0.000002
  8O   2dx2y2    -0.000000  0.000002  0.000213  0.000001  0.000013 -0.000001
  8O   2dxy      -0.000002  0.000001 -0.000530  0.000000  0.000015  0.000001
  8O   1f0       -0.000000  0.000001 -0.000190  0.000001 -0.000026  0.000000
  8O   1f+1       0.000000 -0.000000  0.000108 -0.000001  0.000006 -0.000000
  8O   1f-1      -0.000001  0.000001 -0.000189  0.000001 -0.000012 -0.000000
  8O   1f+2       0.000000 -0.000000  0.000162  0.000000 -0.000000  0.000000
  8O   1f-2      -0.000000 -0.000000 -0.000082 -0.000001 -0.000005  0.000000
  8O   1f+3       0.000000 -0.000000 -0.000007 -0.000000 -0.000001 -0.000000
  8O   1f-3       0.000000 -0.000000  0.000102  0.000000  0.000000 -0.000000
  9H   1s         0.000001 -0.000001 -0.000721 -0.000000 -0.000000 -0.000001
  9H   2s        -0.000010  0.000007 -0.001463 -0.000011 -0.000042  0.000014
  9H   3s         0.000008 -0.000044  0.001305  0.000001  0.000201 -0.000005
  9H   1pz        0.000001 -0.000001  0.000626  0.000003 -0.000003 -0.000002
  9H   1px        0.000002  0.000001  0.000843  0.000002  0.000037 -0.000002
  9H   1py       -0.000000 -0.000001 -0.000396 -0.000001 -0.000019 -0.000000
 10H   1s         0.000003  0.000003 -0.000667 -0.000007 -0.000137  0.000000
 10H   2s        -0.000029  0.000048 -0.001694  0.000079  0.000458 -0.000020
 10H   3s         0.000133  0.000347  0.004736 -0.000127 -0.000607  0.000124
 10H   1pz       -0.000004  0.000010 -0.001017  0.000011 -0.000090 -0.000002
 10H   1px        0.000000 -0.000000  0.000133 -0.000001  0.000065  0.000002
 10H   1py       -0.000002  0.000005 -0.000429  0.000008 -0.000170  0.000000
                      6         7         8         9        10        11   
                  -1.12150  -0.96242  -0.56495  -0.51433  -0.51041  -0.50875
                   2.00000   2.00000   2.00000   2.00000   2.00000   2.00000
                  --------  --------  --------  --------  --------  --------
  0B   1s        -0.000003  0.000492 -0.000128 -0.000049  0.000074  0.004991
  0B   2s        -0.000015  0.000887 -0.000214 -0.000088  0.000137  0.009560
  0B   3s         0.000023 -0.001394 -0.000973 -0.000238 -0.000190 -0.014551
  0B   4s         0.000137 -0.000827  0.005047  0.001831 -0.000319 -0.014055
  0B   5s        -0.000000 -0.002648 -0.003494  0.001158 -0.001506 -0.015999
  0B   1pz       -0.000049 -0.000602 -0.000134 -0.000251  0.000199  0.005563
  0B   1px       -0.000001  0.000166 -0.000015 -0.000089  0.000317 -0.001439
  0B   1py       -0.000053 -0.001019 -0.000323 -0.000684 -0.000168  0.000551
  0B   2pz       -0.000098  0.001253 -0.001874 -0.000722  0.000349  0.005224
  0B   2px        0.000038 -0.000921  0.000963  0.000115  0.000872 -0.001929
  0B   2py        0.000028 -0.000528  0.000559  0.000912 -0.000029  0.001399
  0B   3pz       -0.000033 -0.000282 -0.000429 -0.000701  0.000115  0.003884
  0B   3px       -0.000063 -0.000593 -0.000324 -0.000601 -0.000478 -0.000359
  0B   3py       -0.000107 -0.000190  0.001328 -0.001409  0.000006  0.002232
  0B   1dz2       0.000026 -0.000023  0.000028  0.000013  0.000004 -0.000539
  0B   1dxz      -0.000006  0.000038  0.000067  0.000015  0.000053  0.000177
  0B   1dyz       0.000029 -0.000220  0.000157  0.000081 -0.000027 -0.000324
  0B   1dx2y2    -0.000014  0.000104 -0.000091 -0.000070  0.000006  0.000246
  0B   1dxy      -0.000004  0.000105 -0.000026 -0.000025 -0.000033  0.000058
  0B   2dz2       0.000056 -0.000576  0.000603  0.000101 -0.000172 -0.001556
  0B   2dxz      -0.000001 -0.000246 -0.000239 -0.000279  0.000051  0.000048
  0B   2dyz       0.000055 -0.000188 -0.000265  0.000110 -0.000010 -0.000924
  0B   2dx2y2    -0.000008  0.000661 -0.000227 -0.000319 -0.000096 -0.000121
  0B   2dxy      -0.000013 -0.000146 -0.000056  0.000199 -0.000136  0.000344
  0B   1f0       -0.000017 -0.000084 -0.000122  0.000008  0.000048  0.000244
  0B   1f+1       0.000001  0.000029  0.000129 -0.000004  0.000017 -0.000233
  0B   1f-1      -0.000045  0.000143 -0.000252 -0.000123 -0.000036  0.000293
  0B   1f+2       0.000011  0.000060  0.000164  0.000039 -0.000036 -0.000169
  0B   1f-2       0.000015 -0.000110 -0.000027  0.000040 -0.000076  0.000086
  0B   1f+3      -0.000002  0.000081  0.000032  0.000044 -0.000037  0.000033
  0B   1f-3      -0.000005  0.000145  0.000089  0.000061  0.000019  0.000056
  1C   1s        -0.001388 -0.000001 -0.067009  0.000379 -0.000388  0.000119
  1C   2s        -0.002932 -0.000001 -0.146240  0.000827 -0.000842  0.000274
  1C   3s         0.005125 -0.000011  0.271061 -0.001640  0.001585 -0.003112
  1C   4s         0.001734  0.000028  0.226565 -0.000616  0.001040  0.001095
  1C   5s         0.000276 -0.000100 -0.004672  0.000093  0.001594  0.020995
  1C   1pz       -0.040670 -0.000011 -0.000838  0.046089  0.087977 -0.269138
  1C   1px       -0.064538  0.000014  0.000403  0.069257  0.259944  0.098497
  1C   1py       -0.229877  0.000003  0.001355  0.252207 -0.087616  0.021833
  1C   2pz       -0.020790  0.000052 -0.006846  0.028143  0.069495 -0.211584
  1C   2px       -0.032829 -0.000104  0.003154  0.041713  0.205339  0.077090
  1C   2py       -0.117071 -0.000088  0.001485  0.152804 -0.069411  0.016381
  1C   3pz       -0.001425 -0.000083 -0.004645 -0.007669  0.016881 -0.051009
  1C   3px       -0.002269 -0.000025  0.002603 -0.013018  0.050071  0.019387
  1C   3py       -0.008096 -0.000518  0.000651 -0.045444 -0.016985  0.006152
  1C   1dz2      -0.000240 -0.000004 -0.006459  0.000181  0.000261  0.000161
  1C   1dxz       0.000106 -0.000006  0.001135  0.000102  0.000234  0.000267
  1C   1dyz       0.000091 -0.000001  0.003863  0.000636  0.000004 -0.000429
  1C   1dx2y2    -0.000136 -0.000003 -0.010019 -0.000138 -0.000265  0.000540
  1C   1dxy       0.000589  0.000005  0.006080 -0.000409  0.000355 -0.000340
  1C   2dz2       0.000526  0.000036  0.005162 -0.001100 -0.002656  0.003355
  1C   2dxz       0.000296  0.000031 -0.000506 -0.000561 -0.003997 -0.003139
  1C   2dyz       0.001310  0.000048 -0.003557 -0.002980  0.001775 -0.000056
  1C   2dx2y2     0.000161  0.000014  0.009154  0.000034  0.001826 -0.002086
  1C   2dxy      -0.000590 -0.000049 -0.005588  0.001673  0.000096  0.001990
  1C   1f0        0.004043 -0.000005 -0.000068 -0.003602 -0.003110  0.008978
  1C   1f+1       0.002346  0.000004  0.000086 -0.002016 -0.003019 -0.003485
  1C   1f-1       0.008440  0.000002 -0.000038 -0.007385  0.003420 -0.006960
  1C   1f+2       0.004465 -0.000008 -0.000075 -0.003957 -0.000875  0.011050
  1C   1f-2      -0.002828  0.000001 -0.000036  0.002524  0.005771 -0.004956
  1C   1f+3      -0.009204 -0.000006 -0.000094  0.007941  0.010225  0.005494
  1C   1f-3      -0.008591  0.000007  0.000194  0.007550 -0.012140 -0.001909
  2H   1s        -0.000031 -0.001711 -0.000151 -0.000373 -0.000168 -0.004686
  2H   2s        -0.000028 -0.002081 -0.000458 -0.001407 -0.000614 -0.008327
  2H   3s        -0.000186  0.003585 -0.003760 -0.001352  0.000571  0.000110
  2H   1pz       -0.000002 -0.000022  0.000090  0.000025  0.000025  0.000201
  2H   1px       -0.000000 -0.000003  0.000005 -0.000026  0.000043 -0.000023
  2H   1py        0.000013  0.000203  0.000244  0.000192  0.000028  0.000682
  3H   1s        -0.000004 -0.000310  0.000018  0.000027 -0.000157 -0.002580
  3H   2s         0.000059 -0.001834  0.000013  0.000352  0.000280 -0.004710
  3H   3s        -0.000088  0.000254  0.001194 -0.001086 -0.000219  0.002830
  3H   1pz       -0.000008  0.000064 -0.000051 -0.000029 -0.000007  0.000296
  3H   1px        0.000002 -0.000229  0.000012  0.000006  0.000055 -0.000487
  3H   1py       -0.000004 -0.000204 -0.000021  0.000003  0.000008 -0.000030
  4H   1s        -0.000002 -0.000246  0.000098  0.000009  0.000184 -0.002972
  4H   2s         0.000008 -0.001027 -0.000888  0.000451 -0.000414 -0.003792
  4H   3s         0.000022  0.001489  0.002441 -0.000055  0.001281  0.001671
  4H   1pz       -0.000005  0.000119  0.000034 -0.000043  0.000036  0.000397
  4H   1px       -0.000000  0.000059  0.000073 -0.000019  0.000046  0.000186
  4H   1py       -0.000006 -0.000060 -0.000042 -0.000003 -0.000009 -0.000051
  5H   1s         0.000157 -0.000037  0.000491  0.000713 -0.000159 -0.010109
  5H   2s        -0.000020  0.001068  0.000125  0.000321 -0.000179 -0.015784
  5H   3s         0.000061  0.000423  0.001277 -0.000486  0.000546  0.005280
  5H   1pz       -0.000122  0.000154 -0.000412 -0.000045  0.000108  0.000675
  5H   1px        0.000025 -0.000040  0.000177 -0.000042  0.000222 -0.000482
  5H   1py       -0.000052  0.000036  0.000088 -0.000138 -0.000072 -0.000525
  6O   1s        -0.068884  0.000000  0.042299 -0.031571 -0.000110  0.000935
  6O   2s        -0.161974  0.000004  0.100972 -0.075428 -0.000271  0.002216
  6O   3s         0.237582 -0.000039 -0.154004  0.111539  0.000437 -0.003100
  6O   4s         0.284650  0.000165 -0.226251  0.207097  0.000837 -0.008943
  6O   5s         0.076484 -0.000524 -0.162721  0.127878  0.001292  0.001445
  6O   1pz        0.013776 -0.000002  0.042419 -0.052150  0.078036 -0.243016
  6O   1px        0.026457  0.000001  0.065728 -0.081257  0.231612  0.086461
  6O   1py        0.088254  0.000005  0.229120 -0.276858 -0.082894  0.012763
  6O   2pz        0.008272 -0.000004  0.032362 -0.039184  0.063690 -0.197880
  6O   2px        0.016789  0.000006  0.049590 -0.058434  0.189005  0.070183
  6O   2py        0.055969 -0.000025  0.172574 -0.200979 -0.067272  0.009899
  6O   3pz       -0.001714  0.000023  0.021692 -0.023969  0.030650 -0.095064
  6O   3px        0.000747 -0.000065  0.022301 -0.027108  0.091022  0.034149
  6O   3py        0.000441 -0.000048  0.085689 -0.098265 -0.032325  0.005922
  6O   1dz2      -0.002571 -0.000001 -0.003128  0.003807  0.000652 -0.001937
  6O   1dxz       0.000413  0.000000  0.000515 -0.000638  0.001745 -0.001634
  6O   1dyz       0.001422 -0.000001  0.001688 -0.002083  0.001842 -0.006854
  6O   1dx2y2    -0.003945 -0.000001 -0.004746  0.005765  0.004298  0.000379
  6O   1dxy       0.002576  0.000001  0.003071 -0.003802  0.005913  0.002557
  6O   2dz2      -0.004661  0.000007 -0.005567  0.006660  0.001040 -0.003549
  6O   2dxz       0.000925 -0.000002  0.000689 -0.000951  0.003418 -0.004636
  6O   2dyz       0.002454  0.000003  0.002914 -0.003798  0.004738 -0.016518
  6O   2dx2y2    -0.006733  0.000008 -0.008774  0.010538  0.010628  0.001007
  6O   2dxy       0.004195 -0.000002  0.005937 -0.006863  0.014153  0.006156
  6O   1f0       -0.000607  0.000001 -0.000450  0.000781 -0.000627  0.001893
  6O   1f+1      -0.000353 -0.000001 -0.000287  0.000476 -0.000619 -0.000706
  6O   1f-1      -0.001279  0.000000 -0.000958  0.001633  0.000735 -0.001336
  6O   1f+2      -0.000656  0.000001 -0.000477  0.000845 -0.000147  0.002291
  6O   1f-2       0.000421 -0.000001  0.000346 -0.000574  0.001172 -0.001084
  6O   1f+3       0.001421  0.000001  0.001062 -0.001821  0.002027  0.001038
  6O   1f-3       0.001271 -0.000002  0.000900 -0.001593 -0.002583 -0.000482
  7O   1s         0.066430 -0.000002  0.042671  0.031130  0.000101  0.001376
  7O   2s         0.156205 -0.000006  0.101866  0.074369  0.000234  0.003272
  7O   3s        -0.229241  0.000031 -0.155327 -0.109798 -0.000315 -0.004756
  7O   4s        -0.273072 -0.000102 -0.228725 -0.205587 -0.000521 -0.011101
  7O   5s        -0.072460  0.000602 -0.166053 -0.126978  0.000337 -0.003463
  7O   1pz        0.016805 -0.000009 -0.039462 -0.043301  0.079957 -0.243705
  7O   1px        0.022338  0.000003 -0.064127 -0.077048  0.235692  0.089086
  7O   1py        0.085452 -0.000002 -0.233566 -0.277491 -0.078118  0.019811
  7O   2pz        0.010825  0.000019 -0.029310 -0.029906  0.065152 -0.198828
  7O   2px        0.013917 -0.000008 -0.048161 -0.056609  0.192215  0.072919
  7O   2py        0.053173 -0.000018 -0.175702 -0.201148 -0.063904  0.016953
  7O   3pz        0.001700 -0.000166 -0.008572 -0.009689  0.031373 -0.093836
  7O   3px       -0.000690  0.000029 -0.026418 -0.029271  0.092162  0.033820
  7O   3py       -0.000203 -0.000096 -0.087050 -0.098243 -0.030788  0.006396
  7O   1dz2       0.002422 -0.000000 -0.003083 -0.003718 -0.000752  0.002250
  7O   1dxz      -0.000409 -0.000002  0.000559  0.000637 -0.001875  0.001389
  7O   1dyz      -0.001591 -0.000005  0.002035  0.002332 -0.001866  0.006860
  7O   1dx2y2     0.003930  0.000001 -0.004939 -0.005924 -0.004037 -0.000063
  7O   1dxy      -0.002232  0.000002  0.002819  0.003409 -0.006149 -0.002739
  7O   2dz2       0.004292  0.000004 -0.005343 -0.006523 -0.002311  0.006397
  7O   2dxz      -0.000913  0.000009  0.000794  0.000965 -0.005247  0.002498
  7O   2dyz      -0.002601  0.000035  0.003872  0.004088 -0.004160  0.016152
  7O   2dx2y2     0.006421 -0.000011 -0.009176 -0.010648 -0.009341 -0.000130
  7O   2dxy      -0.003771 -0.000020  0.005108  0.006331 -0.014786 -0.006338
  7O   1f0       -0.000592  0.000002  0.000466  0.000755 -0.000650  0.001836
  7O   1f+1      -0.000345 -0.000001  0.000241  0.000439 -0.000634 -0.000724
  7O   1f-1      -0.001225 -0.000002  0.000969  0.001643  0.000697 -0.001486
  7O   1f+2      -0.000672  0.000003  0.000507  0.000829 -0.000204  0.002281
  7O   1f-2       0.000411 -0.000000 -0.000312 -0.000519  0.001208 -0.000975
  7O   1f+3       0.001323  0.000003 -0.000978 -0.001730  0.002195  0.001177
  7O   1f-3       0.001285 -0.000002 -0.001009 -0.001677 -0.002476 -0.000339
  8O   1s         0.000000  0.097655 -0.000006 -0.000016 -0.000006 -0.000193
  8O   2s         0.000002  0.229892 -0.000008 -0.000036 -0.000017 -0.000467
  8O   3s        -0.000015 -0.332591 -0.000062  0.000010  0.000052  0.000814
  8O   4s         0.000057 -0.447689  0.000430  0.000285 -0.000087  0.000522
  8O   5s        -0.000149 -0.162369 -0.001436 -0.000465  0.000356  0.002073
  8O   1pz       -0.000000  0.021204  0.000043  0.000261  0.000137  0.003469
  8O   1px        0.000001 -0.055368  0.000018  0.000068  0.000047  0.000969
  8O   1py       -0.000002  0.045727 -0.000005  0.000033  0.000019  0.000629
  8O   2pz       -0.000005  0.018925  0.000072  0.000237  0.000137  0.002862
  8O   2px       -0.000004 -0.050481 -0.000078  0.000066  0.000058  0.000859
  8O   2py        0.000002  0.041397  0.000048  0.000050  0.000013  0.000440
  8O   3pz        0.000049 -0.001443  0.000581  0.000176 -0.000102  0.000679
  8O   3px        0.000005 -0.005532  0.000081  0.000037  0.000009  0.000180
  8O   3py        0.000007  0.000830  0.000151 -0.000047 -0.000046  0.000253
  8O   1dz2       0.000001 -0.002057  0.000007 -0.000002 -0.000003 -0.000056
  8O   1dxz      -0.000000 -0.001483 -0.000001  0.000004  0.000003  0.000063
  8O   1dyz       0.000000 -0.001248  0.000005 -0.000006 -0.000004 -0.000073
  8O   1dx2y2    -0.000000 -0.000980 -0.000001  0.000003  0.000002  0.000034
  8O   1dxy       0.000000  0.002596 -0.000001  0.000000 -0.000000 -0.000017
  8O   2dz2      -0.000003 -0.005075 -0.000066 -0.000019  0.000002 -0.000087
  8O   2dxz       0.000001 -0.003946  0.000023  0.000027  0.000008  0.000177
  8O   2dyz      -0.000002 -0.003029 -0.000055 -0.000015 -0.000001 -0.000155
  8O   2dx2y2     0.000000 -0.003463  0.000008  0.000008  0.000004  0.000086
  8O   2dxy       0.000000  0.007958  0.000013 -0.000013 -0.000007 -0.000023
  8O   1f0        0.000000  0.002212  0.000004  0.000002  0.000000  0.000018
  8O   1f+1      -0.000000 -0.001175 -0.000002  0.000001  0.000001  0.000018
  8O   1f-1       0.000000  0.002265  0.000006  0.000001  0.000000  0.000024
  8O   1f+2       0.000000 -0.001895 -0.000001  0.000003  0.000001  0.000013
  8O   1f-2      -0.000000  0.000706 -0.000002 -0.000003 -0.000001 -0.000027
  8O   1f+3      -0.000000 -0.000070 -0.000001 -0.000001 -0.000000 -0.000009
  8O   1f-3      -0.000000 -0.001513 -0.000001  0.000002  0.000001  0.000013
  9H   1s         0.000000 -0.087459  0.000012  0.000108  0.000059  0.001298
  9H   2s        -0.000000 -0.071032  0.000084  0.000007  0.000030  0.001592
  9H   3s        -0.000015 -0.010577 -0.000289  0.000209  0.000157  0.000879
  9H   1pz       -0.000001  0.009676 -0.000012  0.000009  0.000004  0.000020
  9H   1px        0.000000  0.011117 -0.000004  0.000000 -0.000002 -0.000157
  9H   1py       -0.000001 -0.005060 -0.000007  0.000005  0.000003  0.000135
 10H   1s        -0.000000 -0.087066 -0.000051 -0.000142 -0.000074 -0.001771
 10H   2s         0.000008 -0.064595  0.000417 -0.000177 -0.000135 -0.002353
 10H   3s         0.000215 -0.015274  0.002026  0.000906 -0.000442 -0.002472
 10H   1pz        0.000002 -0.015320  0.000054 -0.000002 -0.000004 -0.000034
 10H   1px        0.000000  0.000887  0.000006  0.000004  0.000003  0.000030
 10H   1py        0.000002 -0.006551  0.000026  0.000010 -0.000001 -0.000005
                     12        13        14        15        16        17   
                  -0.46533  -0.41054  -0.35747  -0.35581  -0.34163  -0.26257
                   2.00000   2.00000   2.00000   2.00000   2.00000   2.00000
                  --------  --------  --------  --------  --------  --------
  0B   1s        -0.017278 -0.086329  0.000059 -0.000194  0.016469 -0.002352
  0B   2s        -0.033377 -0.167253  0.000104 -0.000316  0.032031 -0.004752
  0B   3s         0.055722  0.274413 -0.000158 -0.001192 -0.052392  0.010734
  0B   4s         0.032982  0.203628 -0.000455  0.005822 -0.054548  0.003590
  0B   5s         0.022208  0.069432 -0.004673  0.009386 -0.006654 -0.092326
  0B   1pz        0.002798 -0.000485 -0.000004  0.003729  0.008341 -0.016065
  0B   1px       -0.001100  0.002649 -0.000010  0.000442  0.001687  0.011439
  0B   1py        0.013815  0.004361  0.000158  0.006056  0.021951  0.001120
  0B   2pz        0.000644  0.000249 -0.000634 -0.004382  0.008950 -0.003059
  0B   2px        0.000094  0.001257  0.000972 -0.000078  0.002835  0.006869
  0B   2py        0.006470  0.008029 -0.000459  0.000019  0.008387 -0.005022
  0B   3pz        0.004105  0.003439  0.000035 -0.001029  0.022964 -0.061441
  0B   3px       -0.000383  0.001141 -0.001096  0.003897  0.004576  0.025239
  0B   3py        0.003876  0.001255 -0.001897  0.005272  0.008016 -0.028799
  0B   1dz2      -0.000520 -0.000033  0.000017 -0.000502 -0.000988 -0.000221
  0B   1dxz      -0.000277 -0.000102  0.000091  0.000082 -0.000230  0.000091
  0B   1dyz       0.000238 -0.001317 -0.000014 -0.000274 -0.000780  0.000541
  0B   1dx2y2    -0.001232 -0.000496 -0.000044 -0.000098 -0.001456 -0.000782
  0B   1dxy      -0.000004  0.000314  0.000085  0.000096 -0.000027 -0.000648
  0B   2dz2      -0.000147  0.000630  0.000601  0.001595  0.001222  0.001650
  0B   2dxz       0.000880  0.000018  0.000232 -0.001893  0.006070  0.005345
  0B   2dyz       0.000512  0.003898  0.000300  0.000922  0.005464 -0.006906
  0B   2dx2y2    -0.001071 -0.003068 -0.000393 -0.001792 -0.002620  0.003017
  0B   2dxy      -0.000443 -0.000213 -0.000918  0.000801 -0.001756  0.002490
  0B   1f0       -0.000239 -0.001930 -0.000045 -0.000106  0.000394  0.000347
  0B   1f+1       0.000239  0.001527  0.000005  0.000093 -0.000052  0.000343
  0B   1f-1      -0.000473 -0.002808 -0.000104 -0.000184  0.000422  0.000413
  0B   1f+2       0.000155  0.002186  0.000019  0.000031 -0.001068  0.000498
  0B   1f-2      -0.000212 -0.000550 -0.000049  0.000054 -0.000384 -0.000201
  0B   1f+3      -0.000055  0.001397 -0.000079  0.000132 -0.000843  0.000184
  0B   1f-3       0.000214  0.002972  0.000000  0.000097 -0.000580  0.000093
  1C   1s         0.000062  0.000467  0.000003 -0.000028 -0.000140  0.000056
  1C   2s         0.000139  0.001048  0.000004 -0.000065 -0.000313  0.000153
  1C   3s        -0.000480 -0.003474 -0.000024  0.000251  0.001007 -0.000464
  1C   4s         0.000175  0.001854  0.000193 -0.000938 -0.000294 -0.001226
  1C   5s         0.001825  0.012932  0.000968  0.002134 -0.003850 -0.003739
  1C   1pz       -0.006663 -0.019585  0.000378 -0.000541  0.003456 -0.001701
  1C   1px        0.002761  0.007506  0.000820 -0.000611 -0.001246  0.000559
  1C   1py        0.000729  0.001428  0.000058 -0.002222 -0.000008  0.000157
  1C   2pz       -0.005190 -0.014682 -0.000087 -0.000879  0.002740  0.000263
  1C   2px        0.002130  0.005522  0.000239 -0.000682 -0.001092  0.000767
  1C   2py        0.000369  0.000504 -0.001563 -0.003047 -0.001106  0.000899
  1C   3pz       -0.000931 -0.000952  0.000322 -0.004352 -0.001025 -0.002619
  1C   3px        0.000360 -0.000458 -0.000228 -0.009503 -0.001527 -0.000997
  1C   3py        0.000277 -0.001482 -0.002470 -0.031265 -0.003188 -0.000379
  1C   1dz2       0.000069  0.000337 -0.003425  0.009911 -0.000499  0.000109
  1C   1dxz       0.000002 -0.000109 -0.008644  0.006980 -0.000237  0.000028
  1C   1dyz      -0.000019 -0.000489 -0.009258  0.032127 -0.001146 -0.000003
  1C   1dx2y2     0.000090  0.000610 -0.019485 -0.001208 -0.000176  0.000100
  1C   1dxy      -0.000071 -0.000291 -0.028201 -0.013058  0.000650 -0.000083
  1C   2dz2       0.000286  0.001531 -0.005355  0.015767 -0.001040  0.000884
  1C   2dxz      -0.000279 -0.001661 -0.013527  0.010727  0.000178 -0.000507
  1C   2dyz       0.000006 -0.000295 -0.014349  0.050336 -0.001317 -0.000196
  1C   2dx2y2    -0.000087 -0.000743 -0.030546 -0.001892  0.000336  0.000805
  1C   2dxy       0.000125  0.000921 -0.043986 -0.020268  0.000244 -0.000494
  1C   1f0        0.000240  0.000785  0.000067 -0.000030 -0.000199 -0.000016
  1C   1f+1      -0.000120 -0.000461  0.000099 -0.000016  0.000125 -0.000073
  1C   1f-1      -0.000178 -0.000538  0.000148 -0.000090  0.000141 -0.000019
  1C   1f+2       0.000281  0.000835  0.000201  0.000078 -0.000192 -0.000039
  1C   1f-2      -0.000111 -0.000289  0.000186  0.000026  0.000053  0.000061
  1C   1f+3       0.000150  0.000401 -0.000127 -0.000259 -0.000052  0.000063
  1C   1f-3      -0.000057 -0.000154 -0.000105 -0.000238  0.000022  0.000002
  2H   1s         0.028159  0.084651  0.000139  0.004156  0.001103  0.006278
  2H   2s         0.041683  0.117804 -0.000466  0.004024  0.002708  0.008346
  2H   3s         0.013303  0.062158  0.005297  0.011100  0.032897  0.041886
  2H   1pz        0.001771  0.002434 -0.000046  0.000127  0.001659  0.000161
  2H   1px       -0.001002 -0.001539  0.000060 -0.000035 -0.000069  0.000389
  2H   1py       -0.001914 -0.008833 -0.000034 -0.000136  0.001500 -0.000767
  3H   1s         0.014708  0.077866 -0.000154  0.000038 -0.018150 -0.007698
  3H   2s         0.023812  0.108636  0.001133 -0.000696 -0.017383 -0.015315
  3H   3s         0.003247  0.049674 -0.000019  0.002291 -0.020059  0.035176
  3H   1pz       -0.000569 -0.003426 -0.000088  0.000019  0.001182 -0.000087
  3H   1px        0.002103  0.008854  0.000099 -0.000120 -0.001161 -0.000538
  3H   1py        0.001101  0.001853 -0.000028  0.000238  0.000487  0.000026
  4H   1s         0.012977  0.080298 -0.000052  0.000321 -0.016510  0.001017
  4H   2s         0.017939  0.111289 -0.000912  0.002866 -0.027564 -0.007056
  4H   3s         0.003542  0.054718  0.001592 -0.002208 -0.023681  0.035094
  4H   1pz       -0.001135 -0.006339  0.000067 -0.000085  0.001710 -0.000297
  4H   1px       -0.001262 -0.006491  0.000078 -0.000025  0.001633  0.000704
  4H   1py        0.001039  0.003600  0.000029  0.000291 -0.000461 -0.000077
  5H   1s         0.011164  0.078928 -0.000066 -0.005085 -0.025112  0.010728
  5H   2s         0.014771  0.108958 -0.000920 -0.010919 -0.039093  0.027556
  5H   3s         0.006603  0.054866 -0.000208 -0.021405 -0.010795 -0.012612
  5H   1pz        0.001241  0.008388 -0.000044 -0.000198 -0.002413  0.001486
  5H   1px       -0.000073 -0.000852  0.000201  0.000001  0.000816  0.000474
  5H   1py        0.001034  0.004761 -0.000113  0.000171 -0.000348  0.000609
  6O   1s         0.000103  0.000841  0.000031  0.001415 -0.000359  0.000177
  6O   2s         0.000246  0.002027  0.000088  0.003456 -0.000844  0.000428
  6O   3s        -0.000380 -0.003295 -0.000279 -0.006055  0.001103 -0.000772
  6O   4s        -0.000735 -0.005039  0.000225 -0.007565  0.003604 -0.000394
  6O   5s        -0.000411 -0.007893 -0.002777 -0.019693 -0.002487  0.001511
  6O   1pz       -0.006532 -0.017130  0.109838 -0.321023  0.015792 -0.002271
  6O   1px        0.002386  0.005798  0.308138  0.123156 -0.005900  0.000648
  6O   1py       -0.000265 -0.001188 -0.110586  0.024558 -0.000582 -0.000276
  6O   2pz       -0.005351 -0.014393  0.091581 -0.268456  0.013225 -0.002110
  6O   2px        0.001930  0.004642  0.256835  0.102607 -0.005000  0.000641
  6O   2py       -0.000257 -0.001534 -0.092427  0.019328 -0.000553  0.000276
  6O   3pz       -0.002747 -0.007301  0.060557 -0.173479  0.008709 -0.000559
  6O   3px        0.001024  0.002301  0.170265  0.066989 -0.003459  0.000994
  6O   3py       -0.000165 -0.001234 -0.061390  0.014514 -0.001149  0.001248
  6O   1dz2      -0.000037 -0.000067  0.000551 -0.001575  0.000054  0.000007
  6O   1dxz      -0.000045 -0.000135  0.001375 -0.001133  0.000072 -0.000014
  6O   1dyz      -0.000178 -0.000489  0.001421 -0.005085  0.000278 -0.000052
  6O   1dx2y2     0.000026  0.000092  0.003176  0.000280 -0.000039  0.000026
  6O   1dxy       0.000062  0.000148  0.004358  0.002009 -0.000090  0.000004
  6O   2dz2      -0.000029  0.000202  0.000693 -0.003214  0.000087 -0.000046
  6O   2dxz      -0.000151 -0.000556  0.003068 -0.005465  0.000359 -0.000112
  6O   2dyz      -0.000456 -0.001239  0.005664 -0.017147  0.000946 -0.000223
  6O   2dx2y2     0.000083  0.000322  0.011694  0.000677 -0.000070 -0.000118
  6O   2dxy       0.000151  0.000314  0.014884  0.007246 -0.000430  0.000108
  6O   1f0        0.000056  0.000174 -0.000760  0.002050 -0.000113  0.000045
  6O   1f+1      -0.000022 -0.000079 -0.000695 -0.000828  0.000054 -0.000015
  6O   1f-1      -0.000031 -0.000075  0.000777 -0.001473  0.000071 -0.000025
  6O   1f+2       0.000064  0.000181 -0.000220  0.002439 -0.000126  0.000046
  6O   1f-2      -0.000029 -0.000081  0.001278 -0.001188  0.000057 -0.000024
  6O   1f+3       0.000024  0.000054  0.002172  0.001236 -0.000062  0.000008
  6O   1f-3      -0.000018 -0.000053 -0.002825 -0.000520  0.000036  0.000004
  7O   1s         0.000194  0.000730 -0.000052 -0.001427 -0.000080  0.000140
  7O   2s         0.000464  0.001747 -0.000135 -0.003476 -0.000205  0.000339
  7O   3s        -0.000727 -0.002753  0.000335  0.005975  0.000529 -0.000565
  7O   4s        -0.001142 -0.004650 -0.000035  0.008091 -0.000637 -0.000609
  7O   5s        -0.001093 -0.004398  0.001738  0.018675  0.006338  0.001304
  7O   1pz       -0.006011 -0.021022 -0.110616  0.320982 -0.008457 -0.001220
  7O   1px        0.002351  0.008647 -0.308682 -0.121751  0.003001  0.000656
  7O   1py        0.000384  0.004029  0.101552 -0.020467 -0.000669  0.000575
  7O   2pz       -0.004968 -0.017334 -0.092268  0.268215 -0.006877 -0.001035
  7O   2px        0.001970  0.007228 -0.257435 -0.102234  0.002291  0.000351
  7O   2py        0.000374  0.003681  0.084560 -0.018292 -0.000752  0.000459
  7O   3pz       -0.002343 -0.009853 -0.061178  0.172942 -0.005934 -0.001186
  7O   3px        0.000869  0.004160 -0.170399 -0.065030  0.002032  0.000925
  7O   3py        0.000158  0.002215  0.056079 -0.009981 -0.001417 -0.000240
  7O   1dz2       0.000064  0.000254  0.000512 -0.001571  0.000002  0.000030
  7O   1dxz       0.000027  0.000063  0.001327 -0.001066  0.000024 -0.000013
  7O   1dyz       0.000167  0.000492  0.001482 -0.005074  0.000084  0.000007
  7O   1dx2y2    -0.000002  0.000056  0.002937  0.000099 -0.000022  0.000011
  7O   1dxy      -0.000075 -0.000247  0.004483  0.002110 -0.000023 -0.000009
  7O   2dz2       0.000188  0.000825  0.002991 -0.007294  0.000148  0.000131
  7O   2dxz       0.000038  0.000121  0.006217 -0.001877  0.000104  0.000073
  7O   2dyz       0.000400  0.001381  0.004425 -0.016900  0.000657  0.000253
  7O   2dx2y2     0.000004  0.000202  0.009366  0.000598 -0.000155  0.000076
  7O   2dxy      -0.000160 -0.000683  0.015520  0.006634 -0.000167 -0.000119
  7O   1f0        0.000048  0.000168  0.000719 -0.001977  0.000058  0.000030
  7O   1f+1      -0.000022 -0.000084  0.000653  0.000792 -0.000018 -0.000014
  7O   1f-1      -0.000037 -0.000148 -0.000818  0.001592 -0.000041 -0.000036
  7O   1f+2       0.000058  0.000197  0.000230 -0.002493  0.000077  0.000034
  7O   1f-2      -0.000024 -0.000081 -0.001324  0.000973 -0.000033 -0.000021
  7O   1f+3       0.000030  0.000121 -0.002347 -0.001264  0.000026  0.000018
  7O   1f-3      -0.000009 -0.000012  0.002600  0.000432 -0.000019  0.000012
  8O   1s        -0.000283  0.008730  0.000006  0.001266  0.033519  0.000813
  8O   2s        -0.000676  0.020866  0.000013  0.003004  0.080303  0.002129
  8O   3s         0.001001 -0.032467 -0.000021 -0.004329 -0.125591 -0.006194
  8O   4s         0.002959 -0.044847 -0.000121 -0.008507 -0.179781  0.004942
  8O   5s         0.001669 -0.054707  0.000745 -0.002070 -0.184853 -0.017487
  8O   1pz       -0.339657  0.068378  0.000022 -0.002019 -0.126457 -0.121006
  8O   1px       -0.137207  0.068616  0.000056  0.010067  0.289027  0.264397
  8O   1py       -0.015803 -0.037243 -0.000011 -0.008198 -0.250667  0.365150
  8O   2pz       -0.277504  0.058308 -0.000073 -0.001360 -0.098778 -0.102757
  8O   2px       -0.113071  0.054127  0.000138  0.008140  0.230583  0.221166
  8O   2py       -0.012509 -0.028530 -0.000048 -0.006712 -0.201165  0.301819
  8O   3pz       -0.122915  0.027202 -0.000409 -0.003747 -0.094898 -0.083233
  8O   3px       -0.045408  0.030255 -0.000041  0.005210  0.165758  0.195928
  8O   3py       -0.007512 -0.019040 -0.000246 -0.004812 -0.147379  0.256715
  8O   1dz2       0.004721 -0.000933 -0.000007 -0.000031  0.000028  0.000396
  8O   1dxz      -0.005876  0.001282  0.000002  0.000028 -0.000190 -0.001428
  8O   1dyz       0.006084 -0.000917 -0.000008  0.000026  0.001762 -0.000350
  8O   1dx2y2    -0.003153  0.000732  0.000003  0.000050  0.001078  0.003451
  8O   1dxy       0.002236 -0.001160  0.000001 -0.000160 -0.004339  0.001031
  8O   2dz2       0.011806 -0.004499  0.000063 -0.000242 -0.008362  0.002783
[...]
  6O   1f0       -0.000365 -0.073158 -0.000447  0.002931 -0.012478
  6O   1f+1      -0.000234 -0.047384  0.000015  0.001286 -0.007696
  6O   1f-1      -0.000142 -0.161038 -0.000348  0.005436 -0.025567
  6O   1f+2      -0.000595 -0.081037 -0.000504  0.003514 -0.013596
  6O   1f-2       0.000676  0.051884  0.000344 -0.001802  0.009106
  6O   1f+3      -0.000335  0.183526  0.000072 -0.005255  0.030050
  6O   1f-3       0.000710  0.158765  0.000796 -0.006639  0.024732
  7O   1s        -0.000651  0.020521  0.019915 -0.985049 -0.990604
  7O   2s        -0.000472  0.009543 -0.024432  1.222352  1.238039
  7O   3s         0.009255 -0.712780  0.020127 -1.236743 -1.522962
  7O   4s        -0.025960  2.145808  0.000152  1.274685  3.095008
  7O   5s         0.079573  0.660656 -0.008833 -1.152233  0.204066
  7O   1pz        0.003838  0.033551  0.000691  0.012884  0.020797
  7O   1px       -0.001048  0.046951 -0.000544  0.018283  0.030352
  7O   1py        0.002315  0.178559 -0.000984  0.067027  0.117772
  7O   2pz       -0.014300 -0.284230 -0.002355 -0.009974 -0.184884
  7O   2px        0.003158 -0.406652 -0.002317 -0.018251 -0.272030
  7O   2py       -0.007331 -1.522324 -0.007179 -0.051964 -1.040543
  7O   3pz        0.008059 -0.021028  0.013617  0.033957 -0.041357
  7O   3px       -0.015579 -0.047134 -0.003094  0.023614 -0.037186
  7O   3py       -0.026515 -0.166842  0.003738  0.119772 -0.173828
  7O   1dz2      -0.000069 -0.006987 -0.000641  0.016359  0.001257
  7O   1dxz       0.001527  0.001143  0.000664 -0.002365 -0.000188
  7O   1dyz      -0.000408  0.003766  0.001502 -0.008983 -0.001515
  7O   1dx2y2     0.001890 -0.010797 -0.001095  0.025719  0.002912
  7O   1dxy      -0.002063  0.007202  0.000031 -0.016051  0.000149
  7O   2dz2      -0.001482 -0.348084 -0.000562 -0.025381 -0.106188
  7O   2dxz      -0.001679  0.059704 -0.001569  0.003280  0.016814
  7O   2dyz       0.001647  0.223507 -0.005086  0.010021  0.066757
  7O   2dx2y2    -0.004541 -0.558148  0.000905 -0.036765 -0.172971
  7O   2dxy       0.005509  0.322048  0.002629  0.028685  0.091644
  7O   1f0        0.000318  0.079525 -0.000415  0.002127  0.012283
  7O   1f+1      -0.000477  0.041986  0.000145  0.001898  0.006729
  7O   1f-1       0.000830  0.156663  0.000511  0.005692  0.026003
  7O   1f+2      -0.000351  0.091139 -0.000680  0.002188  0.014081
  7O   1f-2      -0.000256 -0.052277  0.000087 -0.001730 -0.007861
  7O   1f+3      -0.000934 -0.169827 -0.000615 -0.007128 -0.026831
  7O   1f-3       0.000189 -0.170241  0.000269 -0.004752 -0.028275
  8O   1s        -0.000143 -0.000222 -1.390937 -0.040992  0.012668
  8O   2s        -0.000473  0.000044  1.703956  0.050721 -0.015743
  8O   3s         0.015385  0.002032 -1.649442 -0.053131  0.016753
  8O   4s        -0.052473 -0.005583  1.918258  0.070150 -0.023077
  8O   5s         0.032890  0.002294 -0.945528 -0.055842  0.025723
  8O   1pz        0.000234 -0.000524  0.019460  0.000765 -0.000175
  8O   1px        0.000360 -0.000044 -0.028894 -0.000542 -0.000082
  8O   1py        0.001067 -0.000284  0.024409  0.000466 -0.000084
  8O   2pz        0.019046  0.003247 -0.111912 -0.003936  0.000325
  8O   2px       -0.006564 -0.000014  0.174161  0.004200 -0.000171
  8O   2py        0.008396  0.001500 -0.153809 -0.003694  0.000529
  8O   3pz       -0.012254  0.000397  0.117198  0.012519 -0.008058
  8O   3px        0.017551 -0.000230 -0.041049 -0.000144 -0.000406
  8O   3py       -0.008383 -0.000109  0.049088  0.002664 -0.002805
  8O   1dz2      -0.002336  0.000202 -0.004305  0.000175 -0.000254
  8O   1dxz       0.002135 -0.000082 -0.006328 -0.000247  0.000100
  8O   1dyz      -0.004836  0.000203 -0.001951  0.000048 -0.000242
  8O   1dx2y2     0.001184 -0.000005 -0.002719 -0.000109  0.000100
  8O   1dxy       0.002678 -0.000044  0.007110  0.000253  0.000010
  8O   2dz2      -0.006331 -0.001279  0.061916  0.000796  0.000822
  8O   2dxz      -0.003555  0.000528  0.048529  0.001792 -0.000740
  8O   2dyz       0.000649 -0.001176  0.030509  0.000308  0.000901
  8O   2dx2y2    -0.000589  0.000201  0.024035  0.000860 -0.000466
  8O   2dxy      -0.004116  0.000137 -0.060742 -0.001888  0.000213
  8O   1f0        0.004215  0.000149 -0.031326 -0.000817  0.000100
  8O   1f+1      -0.000674 -0.000073  0.017570  0.000503 -0.000086
  8O   1f-1       0.004796  0.000221 -0.031591 -0.000823  0.000071
  8O   1f+2      -0.001517 -0.000021  0.025665  0.000735 -0.000173
  8O   1f-2       0.000393 -0.000088 -0.012807 -0.000435  0.000168
  8O   1f+3       0.000447 -0.000025 -0.001346 -0.000059  0.000055
  8O   1f-3       0.000471  0.000034  0.015018  0.000452 -0.000126
  9H   1s         0.001539 -0.000092 -0.082367 -0.002389  0.000943
  9H   2s        -0.006110 -0.000458 -0.165186 -0.005279  0.000047
  9H   3s        -0.021515 -0.000960  0.113866  0.000845  0.003074
  9H   1pz        0.001064  0.000190  0.073681  0.002171 -0.000513
  9H   1px       -0.003694  0.000138  0.105419  0.003375 -0.000887
  9H   1py        0.003656 -0.000082 -0.050857 -0.001643  0.000556
 10H   1s         0.015309 -0.000401 -0.082974 -0.001955  0.000636
 10H   2s        -0.007528  0.008444 -0.198346 -0.004184 -0.004546
 10H   3s         0.006737 -0.006211  0.464777  0.049796 -0.022221
 10H   1pz        0.026422  0.001522 -0.131078 -0.003297 -0.000085
 10H   1px       -0.012943 -0.000274  0.022252  0.000637 -0.000105
 10H   1py        0.015206  0.000917 -0.059092 -0.001468 -0.000208



                    ********************************
                    * MULLIKEN POPULATION ANALYSIS *
                    ********************************

-----------------------
MULLIKEN ATOMIC CHARGES
-----------------------
   0 B :   -0.424483
   1 C :    0.446508
   2 H :   -0.158219
   3 H :   -0.101661
   4 H :   -0.124977
   5 H :   -0.144959
   6 O :   -0.232813
   7 O :   -0.228781
   8 O :   -0.667858
   9 H :    0.299485
  10 H :    0.337758
Sum of atomic charges:   -1.0000000

--------------------------------
MULLIKEN REDUCED ORBITAL CHARGES
--------------------------------
  0 B s       :     2.965360  s :     2.965360
      pz      :     0.812892  p :     2.400184
      px      :     0.838335
      py      :     0.748957
      dz2     :     0.012915  d :     0.056087
      dxz     :     0.014842
      dyz     :     0.006276
      dx2y2   :     0.018070
      dxy     :     0.003983
      f0      :     0.000356  f :     0.002852
      f+1     :     0.000228
      f-1     :     0.000602
      f+2     :     0.000453
      f-2     :     0.000192
      f+3     :     0.000236
      f-3     :     0.000783
  1 C s       :     2.900579  s :     2.900579
      pz      :     0.761693  p :     2.371342
      px      :     0.767802
      py      :     0.841847
      dz2     :     0.016689  d :     0.249736
      dxz     :     0.010375
      dyz     :     0.091766
      dx2y2   :     0.047659
      dxy     :     0.083246
      f0      :     0.003733  f :     0.031836
      f+1     :     0.000903
      f-1     :     0.004371
      f+2     :     0.005134
      f-2     :     0.002362
      f+3     :     0.007505
      f-3     :     0.007827
  2 H s       :     1.149190  s :     1.149190
      pz      :     0.002741  p :     0.009029
      px      :     0.002501
      py      :     0.003787
  3 H s       :     1.092544  s :     1.092544
      pz      :     0.002576  p :     0.009117
      px      :     0.004397
      py      :     0.002145
  4 H s       :     1.115675  s :     1.115675
      pz      :     0.003323  p :     0.009302
      px      :     0.003499
      py      :     0.002481
  5 H s       :     1.135738  s :     1.135738
      pz      :     0.004013  p :     0.009221
      px      :     0.002360
      py      :     0.002848
  6 O s       :     3.801419  s :     3.801419
      pz      :     1.548508  p :     4.398032
      px      :     1.526996
      py      :     1.322528
      dz2     :     0.002959  d :     0.031561
      dxz     :     0.001061
      dyz     :     0.009298
      dx2y2   :     0.008775
      dxy     :     0.009468
      f0      :     0.000210  f :     0.001801
      f+1     :     0.000051
      f-1     :     0.000253
      f+2     :     0.000274
      f-2     :     0.000134
      f+3     :     0.000425
      f-3     :     0.000453
  7 O s       :     3.803051  s :     3.803051
      pz      :     1.537639  p :     4.392395
      px      :     1.535063
      py      :     1.319694
      dz2     :     0.003431  d :     0.031533
      dxz     :     0.001013
      dyz     :     0.009264
      dx2y2   :     0.008421
      dxy     :     0.009405
      f0      :     0.000200  f :     0.001801
      f+1     :     0.000048
      f-1     :     0.000268
      f+2     :     0.000283
      f-2     :     0.000124
      f+3     :     0.000439
      f-3     :     0.000438
  8 O s       :     3.796059  s :     3.796059
      pz      :     1.394984  p :     4.850161
      px      :     1.643022
      py      :     1.812155
      dz2     :     0.002836  d :     0.020497
      dxz     :     0.004795
      dyz     :     0.005063
      dx2y2   :     0.003329
      dxy     :     0.004473
      f0      :     0.000192  f :     0.001141
      f+1     :     0.000053
      f-1     :     0.000312
      f+2     :     0.000150
      f-2     :     0.000204
      f+3     :     0.000050
      f-3     :     0.000180
  9 H s       :     0.657801  s :     0.657801
      pz      :     0.012046  p :     0.042714
      px      :     0.016396
      py      :     0.014272
 10 H s       :     0.615120  s :     0.615120
      pz      :     0.021048  p :     0.047122
      px      :     0.011092
      py      :     0.014982


                     *******************************
                     * LOEWDIN POPULATION ANALYSIS *
                     *******************************

----------------------
LOEWDIN ATOMIC CHARGES
----------------------
   0 B :   -0.964729
   1 C :   -0.381078
   2 H :    0.004491
   3 H :    0.008335
   4 H :    0.003010
   5 H :    0.009453
   6 O :    0.176688
   7 O :    0.182854
   8 O :   -0.364722
   9 H :    0.165732
  10 H :    0.159967

-------------------------------
LOEWDIN REDUCED ORBITAL CHARGES
-------------------------------
  0 B s       :     2.801123  s :     2.801123
      pz      :     0.981646  p :     2.924352
      px      :     0.998337
      py      :     0.944370
      dz2     :     0.046472  d :     0.214672
      dxz     :     0.047762
      dyz     :     0.036053
      dx2y2   :     0.067697
      dxy     :     0.016687
      f0      :     0.003262  f :     0.024582
      f+1     :     0.001906
      f-1     :     0.005915
      f+2     :     0.002491
      f-2     :     0.004020
      f+3     :     0.002117
      f-3     :     0.004872
  1 C s       :     2.786740  s :     2.786740
      pz      :     0.769378  p :     2.603998
      px      :     0.780877
      py      :     1.053743
      dz2     :     0.081700  d :     0.867473
      dxz     :     0.029770
      dyz     :     0.269167
      dx2y2   :     0.220433
      dxy     :     0.266403
      f0      :     0.013040  f :     0.122866
      f+1     :     0.003178
      f-1     :     0.018993
      f+2     :     0.018217
      f-2     :     0.008290
      f+3     :     0.030452
      f-3     :     0.030696
  2 H s       :     0.968920  s :     0.968920
      pz      :     0.007696  p :     0.026589
      px      :     0.007162
      py      :     0.011732
  3 H s       :     0.965601  s :     0.965601
      pz      :     0.007315  p :     0.026064
      px      :     0.012175
      py      :     0.006574
  4 H s       :     0.970997  s :     0.970997
      pz      :     0.009095  p :     0.025993
      px      :     0.009623
      py      :     0.007275
  5 H s       :     0.965496  s :     0.965496
      pz      :     0.010869  p :     0.025052
      px      :     0.006598
      py      :     0.007585
  6 O s       :     3.406159  s :     3.406159
      pz      :     1.443492  p :     4.345672
      px      :     1.436976
      py      :     1.465203
      dz2     :     0.008768  d :     0.065416
      dxz     :     0.001650
      dyz     :     0.014548
      dx2y2   :     0.022556
      dxy     :     0.017893
      f0      :     0.000565  f :     0.006066
      f+1     :     0.000156
      f-1     :     0.001087
      f+2     :     0.000743
      f-2     :     0.000354
      f+3     :     0.001638
      f-3     :     0.001523
  7 O s       :     3.404437  s :     3.404437
      pz      :     1.435030  p :     4.340919
      px      :     1.439875
      py      :     1.466014
      dz2     :     0.008866  d :     0.065675
      dxz     :     0.001572
      dyz     :     0.015285
      dx2y2   :     0.022896
      dxy     :     0.017056
      f0      :     0.000569  f :     0.006116
      f+1     :     0.000139
      f-1     :     0.001106
      f+2     :     0.000808
      f-2     :     0.000341
      f+3     :     0.001570
      f-3     :     0.001582
  8 O s       :     3.489649  s :     3.489649
      pz      :     1.398777  p :     4.843889
      px      :     1.648905
      py      :     1.796208
      dz2     :     0.005220  d :     0.029136
      dxz     :     0.008223
      dyz     :     0.007689
      dx2y2   :     0.003234
      dxy     :     0.004770
      f0      :     0.000349  f :     0.002048
      f+1     :     0.000097
      f-1     :     0.000581
      f+2     :     0.000269
      f-2     :     0.000466
      f+3     :     0.000019
      f-3     :     0.000266
  9 H s       :     0.692135  s :     0.692135
      pz      :     0.036835  p :     0.142133
      px      :     0.061508
      py      :     0.043790
 10 H s       :     0.677046  s :     0.677046
      pz      :     0.079399  p :     0.162987
      px      :     0.033682
      py      :     0.049906


                      *****************************
                      * MAYER POPULATION ANALYSIS *
                      *****************************

  NA   - Mulliken gross atomic population
  ZA   - Total nuclear charge
  QA   - Mulliken gross atomic charge
  VA   - Mayer's total valence
  BVA  - Mayer's bonded valence
  FA   - Mayer's free valence

  ATOM       NA         ZA         QA         VA         BVA        FA
  0 B      5.4245     5.0000    -0.4245     3.9285     3.9285     0.0000
  1 C      5.5535     6.0000     0.4465     4.3791     4.3791     0.0000
  2 H      1.1582     1.0000    -0.1582     0.9232     0.9232    -0.0000
  3 H      1.1017     1.0000    -0.1017     0.9471     0.9471    -0.0000
  4 H      1.1250     1.0000    -0.1250     0.9469     0.9469    -0.0000
  5 H      1.1450     1.0000    -0.1450     0.9314     0.9314     0.0000
  6 O      8.2328     8.0000    -0.2328     2.3537     2.3537     0.0000
  7 O      8.2288     8.0000    -0.2288     2.3611     2.3611     0.0000
  8 O      8.6679     8.0000    -0.6679     1.7769     1.7769    -0.0000
  9 H      0.7005     1.0000     0.2995     0.9250     0.9250    -0.0000
 10 H      0.6622     1.0000     0.3378     0.9504     0.9504    -0.0000

  Mayer bond orders larger than 0.100000
B(  0-B ,  2-H ) :   0.9060 B(  0-B ,  3-H ) :   0.9905 B(  0-B ,  4-H ) :   0.9879 
B(  0-B ,  5-H ) :   0.9529 B(  1-C ,  6-O ) :   2.1674 B(  1-C ,  7-O ) :   2.1709 
B(  6-O ,  7-O ) :   0.1924 B(  8-O ,  9-H ) :   0.9208 B(  8-O , 10-H ) :   0.8459 


-------
TIMINGS
-------

Total SCF time: 0 days 0 hours 0 min 19 sec 

Total time                  ....      19.652 sec
Sum of individual times     ....      19.380 sec  ( 98.6%)

Fock matrix formation       ....      18.036 sec  ( 91.8%)
  XC integration            ....       1.793 sec  (  9.9% of F)
    Basis function eval.    ....       0.603 sec  ( 33.6% of XC)
    Density eval.           ....       0.320 sec  ( 17.8% of XC)
    XC-Functional eval.     ....       0.302 sec  ( 16.9% of XC)
    XC-Potential eval.      ....       0.438 sec  ( 24.4% of XC)
Diagonalization             ....       0.033 sec  (  0.2%)
Density matrix formation    ....       0.005 sec  (  0.0%)
Population analysis         ....       0.004 sec  (  0.0%)
Initial guess               ....       0.194 sec  (  1.0%)
Orbital Transformation      ....       0.000 sec  (  0.0%)
Orbital Orthonormalization  ....       0.000 sec  (  0.0%)
DIIS solution               ....       0.009 sec  (  0.0%)
SOSCF solution              ....       0.019 sec  (  0.1%)
Grid generation             ....       1.080 sec  (  5.5%)


-------------------------------------------------------------------------------
                          DFT DISPERSION CORRECTION                            
                                                                               
                              DFTD3 V3.1  Rev 1                                
                          USING Becke-Johnson damping                          
-------------------------------------------------------------------------------
The WB97X-D3BJ functional is recognized
Active option DFTDOPT                   ...         4   

molecular C6(AA) [au] = 997.555601 


            DFT-D V3
 parameters
 s6 scaling factor         :     1.0000 
 a1 scaling factor         :     0.0000 
 s8 scaling factor         :     0.2641 
 a2 scaling factor         :     5.4959 
 ad hoc parameters k1-k3   :    16.0000     1.3333    -4.0000 

 Edisp/kcal,au: -4.649431082101  -0.007409339266 
 E6   /kcal   :  -3.984087097 
 E8   /kcal   :  -0.665343985 
 % E8         :  14.310223620 

-------------------------   ----------------
Dispersion correction           -0.007409339
-------------------------   ----------------


-------------------------   --------------------
FINAL SINGLE POINT ENERGY      -292.490475645315
-------------------------   --------------------


                            ***************************************
                            *     ORCA property calculations      *
                            ***************************************

                                    ---------------------
                                    Active property flags
                                    ---------------------
   (+) Dipole Moment


------------------------------------------------------------------------------
                       ORCA ELECTRIC PROPERTIES CALCULATION
------------------------------------------------------------------------------

Dipole Moment Calculation                       ... on
Quadrupole Moment Calculation                   ... off
Polarizability Calculation                      ... off
GBWName                                         ... neb-0.gbw
Electron density file                           ... neb-0.scfp
The origin for moment calculation is the CENTER OF MASS  = ( 6.966259, 11.448301  7.510539)

-------------
DIPOLE MOMENT
-------------
                                X             Y             Z
Electronic contribution:      4.85316      -0.36365     -14.43606
Nuclear contribution   :     -3.13135       0.80269      11.24356
                        -----------------------------------------
Total Dipole Moment    :      1.72181       0.43904      -3.19250
                        -----------------------------------------
Magnitude (a.u.)       :      3.65369
Magnitude (Debye)      :      9.28694



--------------------
Rotational spectrum 
--------------------
 
Rotational constants in cm-1:     0.242706     0.029354     0.026485 
Rotational constants in MHz :  7276.132009   880.001774   793.990801 

 Dipole components along the rotational axes: 
x,y,z [a.u.] :    -3.182735    -1.765559     0.320063 
x,y,z [Debye]:    -8.089870    -4.487695     0.813535 

 

Timings for individual modules:

Sum of individual times         ...       21.134 sec (=   0.352 min)
GTO integral calculation        ...        0.857 sec (=   0.014 min)   4.1 %
SCF iterations                  ...       20.277 sec (=   0.338 min)  95.9 %
                             ****ORCA TERMINATED NORMALLY****
TOTAL RUN TIME: 0 days 0 hours 0 minutes 21 seconds 934 msec
