
                                 *****************
                                 * O   R   C   A *
                                 *****************

           --- An Ab Initio, DFT and Semiempirical electronic structure package ---

                  #######################################################
                  #                        -***-                        #
                  #          Department of theory and spectroscopy      #
                  #               Directorship: Frank Neese             #
                  #        Max Planck Institute fuer Kohlenforschung    #
                  #                Kaiser Wilhelm Platz 1               #
                  #                 D-45470 Muelheim/Ruhr               #
                  #                      Germany                        #
                  #                                                     #
                  #                  All rights reserved                #
                  #                        -***-                        #
                  #######################################################


                         Program Version 4.2.0 -  RELEASE  -


 With contributions from (in alphabetic order):
   Daniel Aravena         : Magnetic Suceptibility
   Michael Atanasov       : Ab Initio Ligand Field Theory (pilot matlab implementation)
   Alexander A. Auer      : GIAO ZORA, VPT2
   Ute Becker             : Parallelization
   Giovanni Bistoni       : ED, misc. LED, open-shell LED, HFLED
   Martin Brehm           : Molecular dynamics
   Dmytro Bykov           : SCF Hessian
   Vijay G. Chilkuri      : MRCI spin determinant printing, contributions to CSF-ICE
   Dipayan Datta          : RHF DLPNO-CCSD density
   Achintya Kumar Dutta   : EOM-CC, STEOM-CC
   Dmitry Ganyushin       : Spin-Orbit,Spin-Spin,Magnetic field MRCI
   Miquel Garcia          : C-PCM Hessian, Gaussian charge scheme
   Yang Guo               : DLPNO-NEVPT2, CIM, IAO-localization
   Andreas Hansen         : Spin unrestricted coupled pair/coupled cluster methods
   Benjamin Helmich-Paris : CASSCF linear response (MC-RPA)
   Lee Huntington         : MR-EOM, pCC
   Robert Izsak           : Overlap fitted RIJCOSX, COSX-SCS-MP3, EOM
   Christian Kollmar      : KDIIS, OOCD, Brueckner-CCSD(T), CCSD density
   Simone Kossmann        : Meta GGA functionals, TD-DFT gradient, OOMP2, MP2 Hessian
   Martin Krupicka        : AUTO-CI
   Lucas Lang             : DCDCAS
   Dagmar Lenk            : GEPOL surface, SMD
   Dimitrios Liakos       : Extrapolation schemes; Compound Job, initial MDCI parallelization
   Dimitrios Manganas     : Further ROCIS development; embedding schemes
   Dimitrios Pantazis     : SARC Basis sets
   Taras Petrenko         : DFT Hessian,TD-DFT gradient, ASA, ECA, R-Raman, ABS, FL, XAS/XES, NRVS
   Peter Pinski           : DLPNO-MP2, DLPNO-MP2 Gradient
   Christoph Reimann      : Effective Core Potentials
   Marius Retegan         : Local ZFS, SOC
   Christoph Riplinger    : Optimizer, TS searches, QM/MM, DLPNO-CCSD(T), (RO)-DLPNO pert. Triples
   Tobias Risthaus        : Range-separated hybrids, TD-DFT gradient, RPA, STAB
   Michael Roemelt        : Original ROCIS implementation
   Masaaki Saitow         : Open-shell DLPNO-CCSD energy and density
   Barbara Sandhoefer     : DKH picture change effects
   Avijit Sen             : IP-ROCIS
   Kantharuban Sivalingam : CASSCF convergence, NEVPT2, FIC-MRCI
   Bernardo de Souza      : ESD, SOC TD-DFT
   Georgi Stoychev        : AutoAux, RI-MP2 NMR
   Willem Van den Heuvel  : Paramagnetic NMR
   Boris Wezisla          : Elementary symmetry handling
   Frank Wennmohs         : Technical directorship


 We gratefully acknowledge several colleagues who have allowed us to
 interface, adapt or use parts of their codes:
   Stefan Grimme, W. Hujo, H. Kruse,             : VdW corrections, initial TS optimization,
                  C. Bannwarth                     DFT functionals, gCP, sTDA/sTD-DF
   Ed Valeev, F. Pavosevic, A. Kumar             : LibInt (2-el integral package), F12 methods
   Garnet Chan, S. Sharma, J. Yang, R. Olivares  : DMRG
   Ulf Ekstrom                                   : XCFun DFT Library
   Mihaly Kallay                                 : mrcc  (arbitrary order and MRCC methods)
   Andreas Klamt, Michael Diedenhofen            : otool_cosmo (COSMO solvation model)
   Jiri Pittner, Ondrej Demel                    : Mk-CCSD
   Frank Weinhold                                : gennbo (NPA and NBO analysis)
   Christopher J. Cramer and Donald G. Truhlar   : smd solvation model
   Lars Goerigk                                  : TD-DFT with DH, B97 family of functionals
   V. Asgeirsson, H. Jonsson                     : NEB implementation
   FAccTs GmbH                                   : IRC, NEB, NEB-TS, Multilevel, MM, QM/MM, CI optimization
   S Lehtola, MJT Oliveira, MAL Marques          : LibXC Library


 Your calculation uses the libint2 library for the computation of 2-el integrals
 For citations please refer to: http://libint.valeyev.net

 Your ORCA version has been built with support for libXC version: 4.2.3
 For citations please refer to: https://tddft.org/programs/libxc/

 This ORCA versions uses:
   CBLAS   interface :  Fast vector & matrix operations
   LAPACKE interface :  Fast linear algebra routines
   SCALAPACK package :  Parallel linear algebra routines


Your calculation utilizes the atom-pairwise dispersion correction
with the Becke-Johnson damping scheme (D3BJ)
Cite in your paper:
S.Grimme, S.Ehrlich, L.Goerigk, J Comput Chem, (2011), 32, 1456–1465 
S.Grimme, J.Antony, S.Ehrlich and H.Krieg, J.Chem.Phys., 132, (2010), 154104 
   

----- Orbital basis set information -----
Your calculation utilizes the basis: def2-SVP
   F. Weigend and R. Ahlrichs, Phys. Chem. Chem. Phys. 7, 3297 (2005).

----- AuxJ basis set information -----
Your calculation utilizes the auxiliary basis: def2/J
   F. Weigend, Phys. Chem. Chem. Phys. 8, 1057 (2006).

================================================================================
                                        WARNINGS
                       Please study these warnings very carefully!
================================================================================


INFO   : the flag for use of LIBINT has been found!

================================================================================
                                       INPUT FILE
================================================================================
NAME = neb-0.inp
|  1> # neb-0
|  2> ! BP86 D3 Def2-SVP SP Grid4 TightSCF
|  3> 
|  4> %pal
|  5>     nprocs 4
|  6> end
|  7> 
|  8> %output
|  9> Print[ P_Basis ] 2
| 10> Print[ P_MOs ] 1
| 11> end
| 12> 
| 13> *xyz -1 1
| 14> B 3.05495  5.38999  5.5298
| 15> C 4.34528  5.52832  1.93888
| 16> H 3.20539  6.60048  5.37104
| 17> H 1.92704  5.13131  5.9609
| 18> H 3.88266  4.94664  6.32833
| 19> H 3.21223  4.8632  4.4156
| 20> O 4.02066  4.41381  1.74534
| 21> O 4.64708  6.64588  2.1399
| 22> O 2.56592  7.94495  7.6808
| 23> H 3.3278  7.57487  8.22165
| 24> H 2.71393  7.53665  6.79237
| 25> *
| 26> 
| 27>                          ****END OF INPUT****
================================================================================

                       ****************************
                       * Single Point Calculation *
                       ****************************

---------------------------------
CARTESIAN COORDINATES (ANGSTROEM)
---------------------------------
  B      3.054950    5.389990    5.529800
  C      4.345280    5.528320    1.938880
  H      3.205390    6.600480    5.371040
  H      1.927040    5.131310    5.960900
  H      3.882660    4.946640    6.328330
  H      3.212230    4.863200    4.415600
  O      4.020660    4.413810    1.745340
  O      4.647080    6.645880    2.139900
  O      2.565920    7.944950    7.680800
  H      3.327800    7.574870    8.221650
  H      2.713930    7.536650    6.792370

----------------------------
CARTESIAN COORDINATES (A.U.)
----------------------------
  NO LB      ZA    FRAG     MASS         X           Y           Z
   0 B     5.0000    0    10.810    5.773019   10.185605   10.449808
   1 C     6.0000    0    12.011    8.211389   10.447011    3.663952
   2 H     1.0000    0     1.008    6.057309   12.473100   10.149795
   3 H     1.0000    0     1.008    3.641578    9.696771   11.264469
   4 H     1.0000    0     1.008    7.337164    9.347795   11.958811
   5 H     1.0000    0     1.008    6.070235    9.190116    8.344275
   6 O     8.0000    0    15.999    7.597946    8.340892    3.298215
   7 O     8.0000    0    15.999    8.781709   12.558893    4.043825
   8 O     8.0000    0    15.999    4.848886   15.013780   14.514608
   9 H     1.0000    0     1.008    6.288631   14.314430   15.536667
  10 H     1.0000    0     1.008    5.128584   14.242204   12.835719

--------------------------------
INTERNAL COORDINATES (ANGSTROEM)
--------------------------------
 B      0   0   0     0.000000000000     0.00000000     0.00000000
 C      1   0   0     3.818218582559     0.00000000     0.00000000
 H      1   2   0     1.230090635400    78.55879691     0.00000000
 H      1   2   3     1.234886035430   130.13369120   108.27996668
 H      1   2   3     1.232604246098   113.28926866   252.07925109
 H      1   2   3     1.242451746548    29.44723983   162.18554903
 O      2   1   3     1.176846810804    91.55516148   194.19947037
 O      2   1   3     1.174918139276    87.72814521    13.26681606
 O      3   1   2     2.748001586499   110.15232177   181.65576298
 H      9   3   1     1.004957244513    95.49547487    66.53313135
 H      9   3   1     0.988900255334     7.26965314   234.07435309

---------------------------
INTERNAL COORDINATES (A.U.)
---------------------------
 B      0   0   0     0.000000000000     0.00000000     0.00000000
 C      1   0   0     7.215387440486     0.00000000     0.00000000
 H      1   2   0     2.324534420808    78.55879691     0.00000000
 H      1   2   3     2.333596413566   130.13369120   108.27996668
 H      1   2   3     2.329284456635   113.28926866   252.07925109
 H      1   2   3     2.347893535588    29.44723983   162.18554903
 O      2   1   3     2.223918173999    91.55516148   194.19947037
 O      2   1   3     2.220273513008    87.72814521    13.26681606
 O      3   1   2     5.192970414064   110.15232177   181.65576298
 H      9   3   1     1.899093968430    95.49547487    66.53313135
 H      9   3   1     1.868750656346     7.26965314   234.07435309

---------------------
BASIS SET INFORMATION
---------------------
There are 4 groups of distinct atoms

 Group   1 Type B   : 7s4p1d contracted to 3s2p1d pattern {511/31/1}
 Group   2 Type C   : 7s4p1d contracted to 3s2p1d pattern {511/31/1}
 Group   3 Type H   : 4s1p contracted to 2s1p pattern {31/1}
 Group   4 Type O   : 7s4p1d contracted to 3s2p1d pattern {511/31/1}

Atom   0B    basis set group =>   1
Atom   1C    basis set group =>   2
Atom   2H    basis set group =>   3
Atom   3H    basis set group =>   3
Atom   4H    basis set group =>   3
Atom   5H    basis set group =>   3
Atom   6O    basis set group =>   4
Atom   7O    basis set group =>   4
Atom   8O    basis set group =>   4
Atom   9H    basis set group =>   3
Atom  10H    basis set group =>   3

-------------------------
BASIS SET IN INPUT FORMAT
-------------------------

 # Basis set for element : H 
 NewGTO H 
 S 3 
   1      13.0107010000      0.0334854848
   2       1.9622572000      0.2347218709
   3       0.4445379600      0.8137702853
 S 1 
   1       0.1219496200      1.0000000000
 P 1 
   1       0.8000000000      1.0000000000
  end;

 # Basis set for element : B 
 NewGTO B 
 S 5 
   1     839.3183008600     -0.0056288836
   2     126.2646484300     -0.0418327946
   3      28.6206007630     -0.1841748812
   4       7.8793722710     -0.4683965503
   5       2.4088857172     -0.4445793088
 S 1 
   1       0.2510510904      1.0000000000
 S 1 
   1       0.0836488661      1.0000000000
 P 3 
   1       6.0332223619     -0.0540325004
   2       1.2499157866     -0.3019403439
   3       0.3387167635     -0.7717079166
 P 1 
   1       0.0964156324      1.0000000000
 D 1 
   1       0.5000000000      1.0000000000
  end;

 # Basis set for element : C 
 NewGTO C 
 S 5 
   1    1238.4016938000      0.0055173650
   2     186.2900499200      0.0410888285
   3      42.2511763460      0.1822538213
   4      11.6765579320      0.4682845944
   5       3.5930506482      0.4457581734
 S 1 
   1       0.4024514736      1.0000000000
 S 1 
   1       0.1309018267      1.0000000000
 P 3 
   1       9.4680970621      0.0568883320
   2       2.0103545142      0.3129405934
   3       0.5477100471      0.7606501651
 P 1 
   1       0.1526861379      1.0000000000
 D 1 
   1       0.8000000000      1.0000000000
  end;

 # Basis set for element : O 
 NewGTO O 
 S 5 
   1    2266.1767785000     -0.0053893504
   2     340.8701019100     -0.0402347214
   3      77.3631351670     -0.1800818421
   4      21.4796449400     -0.4682885766
   5       6.6589433124     -0.4469261716
 S 1 
   1       0.8097597567      1.0000000000
 S 1 
   1       0.2553077223      1.0000000000
 P 3 
   1      17.7215043170      0.0626302488
   2       3.8635505440      0.3333113849
   3       1.0480920883      0.7414863830
 P 1 
   1       0.2764154441      1.0000000000
 D 1 
   1       1.2000000000      1.0000000000
  end;

---------------------------------
AUXILIARY/J BASIS SET INFORMATION
---------------------------------
There are 4 groups of distinct atoms

 Group   1 Type B   : 12s5p4d2f1g contracted to 6s4p3d1f1g pattern {711111/2111/211/2/1}
 Group   2 Type C   : 12s5p4d2f1g contracted to 6s4p3d1f1g pattern {711111/2111/211/2/1}
 Group   3 Type H   : 5s2p1d contracted to 3s1p1d pattern {311/2/1}
 Group   4 Type O   : 12s5p4d2f1g contracted to 6s4p3d1f1g pattern {711111/2111/211/2/1}

Atom   0B    basis set group =>   1
Atom   1C    basis set group =>   2
Atom   2H    basis set group =>   3
Atom   3H    basis set group =>   3
Atom   4H    basis set group =>   3
Atom   5H    basis set group =>   3
Atom   6O    basis set group =>   4
Atom   7O    basis set group =>   4
Atom   8O    basis set group =>   4
Atom   9H    basis set group =>   3
Atom  10H    basis set group =>   3

-------------------------------------
AUXILIARY/J BASIS SET IN INPUT FORMAT
-------------------------------------

 # Auxiliary/J basis set for element : H 
 NewAuxJGTO H 
 S 3 
   1      15.6752927000      0.1007184237
   2       3.6063578000      0.3404257499
   3       1.2080016000      0.6491996172
 S 1 
   1       0.4726794000      1.0000000000
 S 1 
   1       0.2018100000      1.0000000000
 P 2 
   1       2.0281365000      0.5596620919
   2       0.5358730000      0.5596620919
 D 1 
   1       2.2165124000      1.0000000000
  end;

 # Auxiliary/J basis set for element : B 
 NewAuxJGTO B 
 S 7 
   1    1322.2016723000      0.0130721780
   2     458.2370653000      0.0281065289
   3     168.0023641000      0.0968125842
   4      64.9577690000      0.2258335225
   5      26.3871856000      0.3821491110
   6      11.2108611000      0.3266991672
   7       4.9554460000      0.0770367109
 S 1 
   1       2.2652825000     -1.0000000000
 S 1 
   1       1.0638086000      1.0000000000
 S 1 
   1       0.5095187000      1.0000000000
 S 1 
   1       0.2469859000      1.0000000000
 S 1 
   1       0.1202089000      1.0000000000
 P 2 
   1       9.3560736000     -0.5615847160
   2       3.9743131000     -0.4920798837
 P 1 
   1       1.6645147000      1.0000000000
 P 1 
   1       0.6913035000     -1.0000000000
 P 1 
   1       0.2863135000      1.0000000000
 D 2 
   1       2.1120313000      0.3924108444
   2       0.7780769000      0.6972711530
 D 1 
   1       0.3277101000      1.0000000000
 D 1 
   1       0.1449465000      1.0000000000
 F 2 
   1       1.0582718000      0.7745907102
   2       0.4010000000      0.3199796706
 G 1 
   1       0.6514300000     -1.0000000000
  end;

 # Auxiliary/J basis set for element : C 
 NewAuxJGTO C 
 S 7 
   1    1861.0916331000      0.0134602335
   2     642.9939764000      0.0299160374
   3     235.1105725000      0.1008649584
   4      90.7028894000      0.2370970548
   5      36.7794552000      0.3924037254
   6      15.6046273000      0.3195862154
   7       6.8907294000      0.0530104441
 S 1 
   1       3.1478850000     -1.0000000000
 S 1 
   1       1.4777287000      1.0000000000
 S 1 
   1       0.7076466000      1.0000000000
 S 1 
   1       0.3430122000      1.0000000000
 S 1 
   1       0.1669453000      1.0000000000
 P 2 
   1      13.5472892000     -0.6769313712
   2       5.4669419000     -0.3779500978
 P 1 
   1       2.1751721000      1.0000000000
 P 1 
   1       0.8582194000      1.0000000000
 P 1 
   1       0.3376720000      1.0000000000
 D 2 
   1       5.9287253000     -0.3533329857
   2       1.9809209000     -0.7456525731
 D 1 
   1       0.8055417000     -1.0000000000
 D 1 
   1       0.3531244000     -1.0000000000
 F 2 
   1       1.6755626000      0.6311076882
   2       0.5997536000      0.4968166032
 G 1 
   1       1.0024600000     -1.0000000000
  end;

 # Auxiliary/J basis set for element : O 
 NewAuxJGTO O 
 S 7 
   1    2876.8216605000      0.0168151159
   2    1004.7443032000      0.0340137548
   3     369.7579954000      0.1194951309
   4     142.9442404000      0.2664627624
   5      57.8366425000      0.4202764046
   6      24.3864983000      0.2765077335
   7      10.6622662000      0.0057008815
 S 1 
   1       4.8070437000     -1.0000000000
 S 1 
   1       2.2210770000      1.0000000000
 S 1 
   1       1.0447795000      1.0000000000
 S 1 
   1       0.4968425000      1.0000000000
 S 1 
   1       0.2371384000      1.0000000000
 P 2 
   1      64.2613382000     -0.2731534179
   2      16.3006076000     -0.8168011598
 P 1 
   1       4.3550542000      1.0000000000
 P 1 
   1       1.2019554000      1.0000000000
 P 1 
   1       0.3354196000      1.0000000000
 D 2 
   1       9.2146611000     -0.4661230638
   2       2.8435251000     -0.6600908911
 D 1 
   1       0.9955759000     -1.0000000000
 D 1 
   1       0.3649441000     -1.0000000000
 F 2 
   1       2.6420115000      0.5931563945
   2       0.7345613000      0.5931563945
 G 1 
   1       1.3931000000     -1.0000000000
  end;



           ************************************************************
           *        Program running with 4 parallel MPI-processes     *
           *              working on a common directory               *
           ************************************************************
------------------------------------------------------------------------------
                           ORCA GTO INTEGRAL CALCULATION
                           -- RI-GTO INTEGRALS CHOSEN --
------------------------------------------------------------------------------

                         BASIS SET STATISTICS AND STARTUP INFO

Gaussian basis set:
 # of primitive gaussian shells          ...   90
 # of primitive gaussian functions       ...  162
 # of contracted shells                  ...   48
 # of contracted basis functions         ...  100
 Highest angular momentum                ...    2
 Maximum contraction depth               ...    5
Auxiliary gaussian basis set:
 # of primitive gaussian shells          ...  168
 # of primitive gaussian functions       ...  446
 # of contracted shells                  ...  105
 # of contracted aux-basis functions     ...  311
 Highest angular momentum                ...    4
 Maximum contraction depth               ...    7
Ratio of auxiliary to basis functions    ...  3.11
Integral package used                  ... LIBINT
 One Electron integrals                  ... done
 Ordering auxiliary basis shells         ... done
 Integral threshhold             Thresh  ...  2.500e-11
 Primitive cut-off               TCut    ...  2.500e-12
 Pre-screening matrix                    ... done
 Shell pair data                         ... 
 Ordering of the shell pairs             ... done (   0.000 sec) 1009 of 1176 pairs
 Determination of significant pairs      ... done (   0.000 sec)
 Creation of shell pair data             ... done (   0.000 sec)
 Storage of shell pair data              ... done (   0.001 sec)
 Shell pair data done in (   0.002 sec)
 Computing two index integrals           ... done
 Cholesky decomposition of the V-matrix  ... done


Timings:
 Total evaluation time                   ...   0.220 sec (  0.004 min)
 One electron matrix time                ...   0.006 sec (  0.000 min) =  2.9%
 Schwartz matrix evaluation time         ...   0.091 sec (  0.002 min) = 41.7%
 Two index repulsion integral time       ...   0.002 sec (  0.000 min) =  1.0%
 Cholesky decomposition of V             ...   0.101 sec (  0.002 min) = 46.1%
 Three index repulsion integral time     ...   0.000 sec (  0.000 min) =  0.0%



           ************************************************************
           *        Program running with 4 parallel MPI-processes     *
           *              working on a common directory               *
           ************************************************************
-------------------------------------------------------------------------------
                                 ORCA SCF
-------------------------------------------------------------------------------

------------
SCF SETTINGS
------------
Hamiltonian:
 Density Functional     Method          .... DFT(GTOs)
 Exchange Functional    Exchange        .... B88
   X-Alpha parameter    XAlpha          ....  0.666667
   Becke's b parameter  XBeta           ....  0.004200
 Correlation Functional Correlation     .... P86
 LDA part of GGA corr.  LDAOpt          .... PW91-LDA
 Gradients option       PostSCFGGA      .... off
   Density functional embedding theory  .... OFF
 RI-approximation to the Coulomb term is turned on
   Number of auxiliary basis functions  .... 311


General Settings:
 Integral files         IntName         .... neb-0
 Hartree-Fock type      HFTyp           .... RHF
 Total Charge           Charge          ....   -1
 Multiplicity           Mult            ....    1
 Number of Electrons    NEL             ....   42
 Basis Dimension        Dim             ....  100
 Nuclear Repulsion      ENuc            ....    135.8732465384 Eh

Convergence Acceleration:
 DIIS                   CNVDIIS         .... on
   Start iteration      DIISMaxIt       ....    12
   Startup error        DIISStart       ....  0.200000
   # of expansion vecs  DIISMaxEq       ....     5
   Bias factor          DIISBfac        ....   1.050
   Max. coefficient     DIISMaxC        ....  10.000
 Newton-Raphson         CNVNR           .... off
 SOSCF                  CNVSOSCF        .... on
   Start iteration      SOSCFMaxIt      ....   150
   Startup grad/error   SOSCFStart      ....  0.003300
 Level Shifting         CNVShift        .... on
   Level shift para.    LevelShift      ....    0.2500
   Turn off err/grad.   ShiftErr        ....    0.0010
 Zerner damping         CNVZerner       .... off
 Static damping         CNVDamp         .... on
   Fraction old density DampFac         ....    0.7000
   Max. Damping (<1)    DampMax         ....    0.9800
   Min. Damping (>=0)   DampMin         ....    0.0000
   Turn off err/grad.   DampErr         ....    0.1000
 Fernandez-Rico         CNVRico         .... off

SCF Procedure:
 Maximum # iterations   MaxIter         ....   125
 SCF integral mode      SCFMode         .... Direct
   Integral package                     .... LIBINT
 Reset frequency        DirectResetFreq ....    20
 Integral Threshold     Thresh          ....  2.500e-11 Eh
 Primitive CutOff       TCut            ....  2.500e-12 Eh

Convergence Tolerance:
 Convergence Check Mode ConvCheckMode   .... Total+1el-Energy
 Convergence forced     ConvForced      .... 0
 Energy Change          TolE            ....  1.000e-08 Eh
 1-El. energy change                    ....  1.000e-05 Eh
 Orbital Gradient       TolG            ....  1.000e-05
 Orbital Rotation angle TolX            ....  1.000e-05
 DIIS Error             TolErr          ....  5.000e-07


Diagonalization of the overlap matrix:
Smallest eigenvalue                        ... 4.655e-03
Time for diagonalization                   ...    0.002 sec
Threshold for overlap eigenvalues          ... 1.000e-08
Number of eigenvalues below threshold      ... 0
Time for construction of square roots      ...    0.001 sec
Total time needed                          ...    0.003 sec

-------------------
DFT GRID GENERATION
-------------------

General Integration Accuracy     IntAcc      ...  4.670
Radial Grid Type                 RadialGrid  ... Gauss-Chebyshev
Angular Grid (max. acc.)         AngularGrid ... Lebedev-302
Angular grid pruning method      GridPruning ... 3 (G Style)
Weight generation scheme         WeightScheme... Becke
Basis function cutoff            BFCut       ...    1.0000e-11
Integration weight cutoff        WCut        ...    1.0000e-14
Grids for H and He will be reduced by one unit

# of grid points (after initial pruning)     ...  51340 (   0.0 sec)
# of grid points (after weights+screening)   ...  49090 (   0.0 sec)
nearest neighbour list constructed           ...    0.0 sec
Grid point re-assignment to atoms done       ...    0.0 sec
Grid point division into batches done        ...    0.2 sec
Reduced shell lists constructed in    0.2 sec

Total number of grid points                  ...    49090
Total number of batches                      ...      772
Average number of points per batch           ...       63
Average number of grid points per atom       ...     4463
Average number of shells per batch           ...    30.20 (62.92%)
Average number of basis functions per batch  ...    59.23 (59.23%)
Average number of large shells per batch     ...    23.61 (78.17%)
Average number of large basis fcns per batch ...    45.94 (77.56%)
Maximum spatial batch extension              ...  18.98, 21.69, 20.64 au
Average spatial batch extension              ...   0.63,  0.60,  0.67 au

Time for grid setup =    0.257 sec

------------------------------
INITIAL GUESS: MODEL POTENTIAL
------------------------------
Loading Hartree-Fock densities                     ... done
Calculating cut-offs                               ... done
Setting up the integral package                    ... done
Initializing the effective Hamiltonian             ... done
Starting the Coulomb interaction                   ... done (   0.0 sec)
Reading the grid                                   ... done
Mapping shells                                     ... done
Starting the XC term evaluation                    ... done (   0.1 sec)
  promolecular density results
     # of electrons  =     40.997231446
     EX              =    -35.209733031
     EC              =     -1.433822749
     EX+EC           =    -36.643555780
Transforming the Hamiltonian                       ... done (   0.0 sec)
Diagonalizing the Hamiltonian                      ... done (   0.0 sec)
Back transforming the eigenvectors                 ... done (   0.0 sec)
Now organizing SCF variables                       ... done
                      ------------------
                      INITIAL GUESS DONE (   0.4 sec)
                      ------------------
--------------
SCF ITERATIONS
--------------
ITER       Energy         Delta-E        Max-DP      RMS-DP      [F,P]     Damp
               ***  Starting incremental Fock matrix formation  ***
  0   -291.7437342206   0.000000000000 0.11336851  0.00461932  0.2814803 0.7000
  1   -291.9055991782  -0.161864957637 0.08130994  0.00295994  0.1124267 0.7000
                               ***Turning on DIIS***
  2   -291.9569779027  -0.051378724493 0.13248483  0.00459709  0.0428154 0.0000
  3   -292.0410729527  -0.084095050038 0.05418799  0.00192743  0.0745255 0.0000
  4   -292.0613255533  -0.020252600517 0.02118456  0.00080229  0.0282970 0.0000
  5   -292.0646930688  -0.003367515567 0.00864469  0.00030158  0.0085499 0.0000
                      *** Initiating the SOSCF procedure ***
                           *** Shutting down DIIS ***
                      *** Re-Reading the Fockian *** 
                      *** Removing any level shift *** 
ITER      Energy       Delta-E        Grad      Rot      Max-DP    RMS-DP
  6   -292.06499607  -0.0003030039  0.000794  0.000794  0.003121  0.000119
               *** Restarting incremental Fock matrix formation ***
  7   -292.06503135  -0.0000352753  0.000435  0.002177  0.003383  0.000117
  8   -292.06503070   0.0000006492  0.000424  0.000492  0.001279  0.000040
  9   -292.06503592  -0.0000052169  0.000377  0.000719  0.001012  0.000049
 10   -292.06503224   0.0000036732  0.000669  0.000491  0.000851  0.000031
 11   -292.06503697  -0.0000047246  0.000124  0.000255  0.000592  0.000019
 12   -292.06503649   0.0000004784  0.000242  0.000171  0.000365  0.000012
 13   -292.06503714  -0.0000006491  0.000022  0.000036  0.000077  0.000003
 14   -292.06503713   0.0000000084  0.000035  0.000023  0.000054  0.000002
 15   -292.06503714  -0.0000000136  0.000004  0.000005  0.000016  0.000001
 16   -292.06503714  -0.0000000001  0.000005  0.000002  0.000009  0.000000
                 **** Energy Check signals convergence ****
              ***Rediagonalizing the Fockian in SOSCF/NRSCF***

               *****************************************************
               *                     SUCCESS                       *
               *           SCF CONVERGED AFTER  17 CYCLES          *
               *****************************************************

Setting up the final grid:

General Integration Accuracy     IntAcc      ...  5.010
Radial Grid Type                 RadialGrid  ... Gauss-Chebyshev
Angular Grid (max. acc.)         AngularGrid ... Lebedev-434
Angular grid pruning method      GridPruning ... 3 (G Style)
Weight generation scheme         WeightScheme... Becke
Basis function cutoff            BFCut       ...    1.0000e-11
Integration weight cutoff        WCut        ...    1.0000e-14
Grids for H and He will be reduced by one unit

# of grid points (after initial pruning)     ...  93966 (   0.0 sec)
# of grid points (after weights+screening)   ...  89718 (   0.0 sec)
nearest neighbour list constructed           ...    0.0 sec
Grid point re-assignment to atoms done       ...    0.0 sec
Grid point division into batches done        ...    0.6 sec
Reduced shell lists constructed in    0.7 sec

Total number of grid points                  ...    89718
Total number of batches                      ...     1407
Average number of points per batch           ...       63
Average number of grid points per atom       ...     8156
Average number of shells per batch           ...    29.69 (61.86%)
Average number of basis functions per batch  ...    58.04 (58.04%)
Average number of large shells per batch     ...    23.19 (78.11%)
Average number of large basis fcns per batch ...    44.94 (77.43%)
Maximum spatial batch extension              ...  21.73, 20.22, 17.28 au
Average spatial batch extension              ...   0.53,  0.49,  0.52 au

Final grid set up in    0.8 sec
Final integration                            ... done (   0.1 sec)
Change in XC energy                          ...     0.000020470
Integrated number of electrons               ...    41.999996515
Previous integrated no of electrons          ...    42.000125469

----------------
TOTAL SCF ENERGY
----------------

Total Energy       :         -292.06501667 Eh           -7947.49315 eV

Components:
Nuclear Repulsion  :          135.87324654 Eh            3697.29901 eV
Electronic Energy  :         -427.93826321 Eh          -11644.79215 eV
One Electron Energy:         -674.24991282 Eh          -18347.27289 eV
Two Electron Energy:          246.31164961 Eh            6702.48073 eV

Virial components:
Potential Energy   :         -581.45651089 Eh          -15822.23605 eV
Kinetic Energy     :          289.39149421 Eh            7874.74290 eV
Virial Ratio       :            2.00923843


DFT components:
N(Alpha)           :       20.999998257637 electrons
N(Beta)            :       20.999998257637 electrons
N(Total)           :       41.999996515274 electrons
E(X)               :      -36.076735852832 Eh       
E(C)               :       -1.492111828326 Eh       
E(XC)              :      -37.568847681157 Eh       
DFET-embed. en.    :        0.000000000000 Eh       

---------------
SCF CONVERGENCE
---------------

  Last Energy change         ...   -5.3183e-10  Tolerance :   1.0000e-08
  Last MAX-Density change    ...    4.7141e-07  Tolerance :   1.0000e-07
  Last RMS-Density change    ...    1.9263e-08  Tolerance :   5.0000e-09
  Last Orbital Gradient      ...    8.7662e-08  Tolerance :   1.0000e-05
  Last Orbital Rotation      ...    3.2954e-07  Tolerance :   1.0000e-05

             **** THE GBW FILE WAS UPDATED (neb-0.gbw) ****
             **** DENSITY FILE WAS UPDATED (neb-0.scfp) ****
             **** ENERGY FILE WAS UPDATED (neb-0.en.tmp) ****
             **** THE GBW FILE WAS UPDATED (neb-0.gbw) ****
             **** DENSITY FILE WAS UPDATED (neb-0.scfp) ****
----------------
ORBITAL ENERGIES
----------------

  NO   OCC          E(Eh)            E(eV) 
   0   2.0000     -18.729470      -509.6548 
   1   2.0000     -18.728731      -509.6347 
   2   2.0000     -18.593430      -505.9530 
   3   2.0000      -9.962801      -271.1016 
   4   2.0000      -6.244036      -169.9088 
   5   2.0000      -0.921128       -25.0652 
   6   2.0000      -0.885229       -24.0883 
   7   2.0000      -0.710371       -19.3302 
   8   2.0000      -0.366103        -9.9622 
   9   2.0000      -0.330758        -9.0004 
  10   2.0000      -0.328689        -8.9441 
  11   2.0000      -0.328335        -8.9345 
  12   2.0000      -0.280683        -7.6378 
  13   2.0000      -0.215081        -5.8526 
  14   2.0000      -0.198389        -5.3984 
  15   2.0000      -0.196465        -5.3461 
  16   2.0000      -0.148098        -4.0300 
  17   2.0000      -0.068095        -1.8529 
  18   2.0000      -0.044458        -1.2098 
  19   2.0000      -0.036791        -1.0011 
  20   2.0000      -0.032595        -0.8869 
  21   0.0000       0.113805         3.0968 
  22   0.0000       0.116066         3.1583 
  23   0.0000       0.162306         4.4166 
  24   0.0000       0.193543         5.2666 
  25   0.0000       0.285129         7.7587 
  26   0.0000       0.312940         8.5155 
  27   0.0000       0.319897         8.7048 
  28   0.0000       0.338648         9.2151 
  29   0.0000       0.395932        10.7738 
  30   0.0000       0.443545        12.0695 
  31   0.0000       0.457934        12.4610 
  32   0.0000       0.468683        12.7535 
  33   0.0000       0.483615        13.1598 
  34   0.0000       0.519784        14.1440 
  35   0.0000       0.530271        14.4294 
  36   0.0000       0.557537        15.1714 
  37   0.0000       0.662764        18.0347 
  38   0.0000       0.677869        18.4458 
  39   0.0000       0.743969        20.2444 
  40   0.0000       0.813653        22.1406 
  41   0.0000       0.818623        22.2759 
  42   0.0000       0.827932        22.5292 
  43   0.0000       0.842465        22.9247 
  44   0.0000       0.886284        24.1170 
  45   0.0000       0.955719        26.0064 
  46   0.0000       0.968994        26.3677 
  47   0.0000       1.027421        27.9575 
  48   0.0000       1.050492        28.5853 
  49   0.0000       1.072214        29.1764 
  50   0.0000       1.092884        29.7389 
  51   0.0000       1.096901        29.8482 
  52   0.0000       1.108340        30.1595 
  53   0.0000       1.155876        31.4530 
  54   0.0000       1.160843        31.5881 
  55   0.0000       1.183246        32.1978 
  56   0.0000       1.314710        35.7751 
  57   0.0000       1.347927        36.6790 
  58   0.0000       1.469560        39.9888 
  59   0.0000       1.519061        41.3357 
  60   0.0000       1.580191        42.9992 
  61   0.0000       1.591511        43.3072 
  62   0.0000       1.599419        43.5224 
  63   0.0000       1.606767        43.7223 
  64   0.0000       1.621696        44.1286 
  65   0.0000       1.623142        44.1679 
  66   0.0000       1.628062        44.3018 
  67   0.0000       1.640603        44.6431 
  68   0.0000       1.653689        44.9992 
  69   0.0000       1.668212        45.3944 
  70   0.0000       1.679772        45.7089 
  71   0.0000       1.711231        46.5650 
  72   0.0000       1.879692        51.1490 
  73   0.0000       2.052069        55.8396 
  74   0.0000       2.088026        56.8181 
  75   0.0000       2.091498        56.9125 
  76   0.0000       2.220096        60.4119 
  77   0.0000       2.285499        62.1916 
  78   0.0000       2.323806        63.2340 
  79   0.0000       2.454315        66.7853 
  80   0.0000       2.581692        70.2514 
  81   0.0000       2.587369        70.4059 
  82   0.0000       2.599683        70.7410 
  83   0.0000       2.670196        72.6597 
  84   0.0000       2.673293        72.7440 
  85   0.0000       2.676471        72.8305 
  86   0.0000       2.696314        73.3704 
  87   0.0000       2.698839        73.4392 
  88   0.0000       2.777660        75.5840 
  89   0.0000       2.786696        75.8299 
  90   0.0000       2.821966        76.7896 
  91   0.0000       3.007811        81.8467 
  92   0.0000       3.049496        82.9810 
  93   0.0000       3.221921        87.6729 
  94   0.0000       3.532406        96.1216 
  95   0.0000       3.537365        96.2566 
  96   0.0000       3.540448        96.3405 
  97   0.0000       3.543930        96.4352 
  98   0.0000       3.863988       105.1444 
  99   0.0000       3.889577       105.8408 
------------------
MOLECULAR ORBITALS
------------------
                      0         1         2         3         4         5   
                 -18.72947 -18.72873 -18.59343  -9.96280  -6.24404  -0.92113
                   2.00000   2.00000   2.00000   2.00000   2.00000   2.00000
                  --------  --------  --------  --------  --------  --------
  0B   1s        -0.000020 -0.000003  0.000046 -0.000054  0.988810 -0.000058
  0B   2s        -0.000370  0.000011  0.000798 -0.000483 -0.045977 -0.001259
  0B   3s         0.003358 -0.000918  0.002546 -0.001790  0.043714 -0.003791
  0B   1pz       -0.000043 -0.000030 -0.000131 -0.000215 -0.000039 -0.000468
  0B   1px        0.000040  0.000001 -0.000001  0.000082  0.000098  0.000191
  0B   1py        0.000049 -0.000059 -0.000252  0.000014  0.000525  0.000064
  0B   2pz       -0.000975  0.000281 -0.002601  0.000301  0.003724  0.000597
  0B   2px        0.000537 -0.000088  0.000884  0.000490 -0.000385  0.001359
  0B   2py        0.000215  0.000387 -0.000104  0.000981  0.001615  0.002523
  0B   1dz2       0.000049 -0.000030  0.000016 -0.000057 -0.000294 -0.000092
  0B   1dxz      -0.000032  0.000018  0.000065  0.000037  0.000085  0.000064
  0B   1dyz       0.000022  0.000013 -0.000073 -0.000021 -0.000026 -0.000034
  0B   1dx2y2    -0.000103 -0.000025 -0.000038 -0.000115  0.000062 -0.000209
  0B   1dxy       0.000015  0.000008  0.000018  0.000010 -0.000035  0.000020
  1C   1s        -0.000572 -0.000635  0.000002  0.987796 -0.000037 -0.197274
  1C   2s         0.000139  0.000214 -0.000006  0.051876  0.000088  0.387337
  1C   3s        -0.007732 -0.008995  0.000053 -0.005132 -0.003047  0.027857
  1C   1pz        0.000059  0.000069 -0.000013  0.000152  0.000392 -0.001315
  1C   1px        0.000041 -0.000093  0.000033 -0.000108 -0.000128  0.000812
  1C   1py        0.000201 -0.000147  0.000027  0.000060 -0.000046  0.008232
  1C   2pz       -0.003427  0.002658  0.000019 -0.000502 -0.001529 -0.004555
  1C   2px       -0.005206  0.005064 -0.000017  0.000307  0.000254  0.002564
  1C   2py       -0.018891  0.017162  0.000160  0.000677 -0.000715  0.002716
  1C   1dz2      -0.001501 -0.001664 -0.000003 -0.003131  0.000117 -0.018589
  1C   1dxz       0.000253  0.000289 -0.000004  0.000547  0.000010  0.003379
  1C   1dyz       0.000948  0.000957  0.000003  0.001844 -0.000044  0.010982
  1C   1dx2y2    -0.002398 -0.002556 -0.000005 -0.004846  0.000231 -0.028565
  1C   1dxy       0.001405  0.001607  0.000007  0.002955 -0.000156  0.017337
  2H   1s        -0.000111  0.000151  0.000437 -0.000111  0.003414 -0.000188
  2H   2s        -0.000955 -0.000608 -0.004568 -0.000147 -0.008234 -0.000458
  2H   1pz        0.000011 -0.000021 -0.000423  0.000021  0.000070  0.000015
  2H   1px       -0.000018  0.000015  0.000181 -0.000033 -0.000116 -0.000042
  2H   1py        0.000028  0.000059 -0.000012  0.000012 -0.000532  0.000017
  3H   1s         0.000053  0.000028  0.000124  0.000058  0.003925  0.000131
  3H   2s        -0.000280  0.000096  0.000285  0.000856 -0.011191  0.002019
  3H   1pz        0.000028  0.000008  0.000106 -0.000012 -0.000259 -0.000020
  3H   1px        0.000030  0.000007  0.000028  0.000069  0.000355  0.000115
  3H   1py       -0.000004 -0.000005 -0.000013 -0.000017 -0.000055 -0.000024
  4H   1s         0.000067 -0.000012  0.000091  0.000066  0.004042  0.000160
  4H   2s        -0.000761  0.000287 -0.000119  0.000176 -0.011714  0.000220
  4H   1pz        0.000045 -0.000007  0.000161  0.000007 -0.000349  0.000009
  4H   1px       -0.000049 -0.000012 -0.000036 -0.000055 -0.000218 -0.000088
  4H   1py       -0.000016  0.000003  0.000022 -0.000037 -0.000031 -0.000055
  5H   1s         0.000101 -0.000039  0.000020 -0.000477  0.003755 -0.000256
  5H   2s        -0.001954  0.001554 -0.002422  0.002782 -0.005571  0.007077
  5H   1pz       -0.000026 -0.000195 -0.000065  0.000074  0.000689 -0.000148
  5H   1px        0.000009  0.000099 -0.000009  0.000022 -0.000062  0.000152
  5H   1py        0.000049  0.000048 -0.000001  0.000121  0.000444  0.000258
  6O   1s        -0.048234  0.987165 -0.000035 -0.000047 -0.000016  0.171298
  6O   2s         0.003373 -0.044368 -0.000065 -0.001472 -0.000242  0.338251
  6O   3s        -0.014089  0.036547  0.000191 -0.008797  0.001005  0.168492
  6O   1pz       -0.000176 -0.000529 -0.000019 -0.000368 -0.000054  0.018011
  6O   1px       -0.000198 -0.001046  0.000003 -0.000675  0.000024  0.036391
  6O   1py       -0.000765 -0.003471  0.000004 -0.002244  0.000011  0.121602
  6O   2pz       -0.000224  0.001191  0.000070 -0.001340  0.000543  0.001666
  6O   2px       -0.000828  0.002070  0.000007 -0.002300 -0.000010  0.007546
  6O   2py       -0.002252  0.006999  0.000016 -0.007944  0.000501  0.023086
  6O   1dz2       0.000289  0.000412  0.000004  0.000722 -0.000029 -0.005273
  6O   1dxz      -0.000052 -0.000066 -0.000003 -0.000115  0.000015  0.000873
  6O   1dyz      -0.000140 -0.000240  0.000003 -0.000410  0.000065  0.002569
  6O   1dx2y2     0.000410  0.000643 -0.000001  0.001119 -0.000065 -0.007745
  6O   1dxy      -0.000306 -0.000414  0.000004 -0.000740  0.000027  0.005036
  7O   1s         0.987159  0.048322  0.000008 -0.000030 -0.000019  0.179659
  7O   2s        -0.044468 -0.000993  0.000034 -0.001343 -0.000335  0.355396
  7O   3s         0.037514 -0.010340 -0.000192 -0.009808  0.002105  0.172159
  7O   1pz        0.000685  0.000165 -0.000013  0.000378  0.000047 -0.026109
  7O   1px        0.000883  0.000323  0.000003  0.000607 -0.000007 -0.033469
  7O   1py        0.003408  0.001108 -0.000007  0.002255  0.000002 -0.127731
  7O   2pz       -0.001365  0.000470  0.000034  0.001685 -0.000080 -0.006209
  7O   2px       -0.001850  0.000219  0.000020  0.002155 -0.000258 -0.005344
  7O   2py       -0.007119  0.001528  0.000072  0.008189 -0.000808 -0.022644
  7O   1dz2       0.000392  0.000301  0.000002  0.000702 -0.000063 -0.005232
  7O   1dxz      -0.000064 -0.000052 -0.000002 -0.000120  0.000015  0.001055
  7O   1dyz      -0.000239 -0.000219 -0.000002 -0.000472  0.000012  0.003599
  7O   1dx2y2     0.000626  0.000510  0.000005  0.001147 -0.000061 -0.008295
  7O   1dxy      -0.000369 -0.000248 -0.000004 -0.000637  0.000040  0.004691
  8O   1s         0.000006 -0.000021 -0.988667 -0.000003 -0.000032 -0.000004
  8O   2s        -0.000020  0.000077  0.040512 -0.000036 -0.000328 -0.000071
  8O   3s         0.000076 -0.000253 -0.018220  0.000138  0.001649  0.000326
  8O   1pz        0.000001 -0.000011 -0.000932  0.000003  0.000055  0.000006
  8O   1px        0.000002 -0.000007  0.001905  0.000003 -0.000024  0.000005
  8O   1py       -0.000001 -0.000004 -0.001576 -0.000007 -0.000276 -0.000008
  8O   2pz       -0.000045  0.000127  0.001502 -0.000047 -0.000117 -0.000112
  8O   2px        0.000004  0.000008 -0.000310  0.000000  0.000139 -0.000000
  8O   2py       -0.000019  0.000050  0.000557 -0.000002  0.000837 -0.000012
  8O   1dz2       0.000006 -0.000012  0.000608  0.000003 -0.000048  0.000005
  8O   1dxz      -0.000002  0.000005  0.000555 -0.000002  0.000000 -0.000003
  8O   1dyz       0.000007 -0.000011  0.000208  0.000005 -0.000044  0.000007
  8O   1dx2y2    -0.000002  0.000002  0.000279 -0.000001  0.000039 -0.000001
  8O   1dxy      -0.000002  0.000003 -0.000585 -0.000001  0.000024 -0.000002
  9H   1s        -0.000014  0.000018 -0.001658  0.000007  0.000442  0.000012
  9H   2s         0.000023 -0.000090  0.001760 -0.000008 -0.001198 -0.000005
  9H   1pz        0.000004 -0.000001  0.001461  0.000006  0.000127  0.000009
  9H   1px       -0.000003  0.000004  0.002208  0.000001  0.000059  0.000003
  9H   1py        0.000003 -0.000004 -0.001099 -0.000001 -0.000032 -0.000001
 10H   1s        -0.000002  0.000043 -0.001625 -0.000006  0.000218 -0.000008
 10H   2s        -0.000095  0.000368  0.007059 -0.000192 -0.003649 -0.000522
 10H   1pz       -0.000031  0.000026 -0.002259 -0.000021  0.000019 -0.000036
 10H   1px        0.000006  0.000001  0.000466 -0.000003 -0.000003 -0.000003
 10H   1py       -0.000006  0.000017 -0.001188  0.000005  0.000338  0.000004
                      6         7         8         9        10        11   
                  -0.88523  -0.71037  -0.36610  -0.33076  -0.32869  -0.32834
                   2.00000   2.00000   2.00000   2.00000   2.00000   2.00000
                  --------  --------  --------  --------  --------  --------
  0B   1s         0.000019 -0.001116  0.000369  0.000088  0.000988 -0.006892
  0B   2s         0.000437 -0.000667  0.002080  0.000152  0.001895 -0.007855
  0B   3s        -0.005326 -0.016212  0.009231 -0.002813 -0.007486 -0.010684
  0B   1pz        0.000038  0.000560  0.000504  0.000111  0.000553 -0.004247
  0B   1px       -0.000053 -0.000198 -0.000195  0.000015 -0.000247  0.001168
  0B   1py       -0.000122  0.001677 -0.000261 -0.000000 -0.000284 -0.000376
  0B   2pz        0.001511 -0.001091 -0.003207 -0.000410  0.004661  0.002919
  0B   2px       -0.000680 -0.002105 -0.000019 -0.004838 -0.002317 -0.002590
  0B   2py        0.000108 -0.004374  0.003050  0.000516  0.001659  0.000782
  0B   1dz2      -0.000078 -0.000024 -0.000132  0.000011 -0.000154 -0.000793
  0B   1dxz       0.000008 -0.000073 -0.000029 -0.000090 -0.000036  0.000418
  0B   1dyz      -0.000057 -0.000623 -0.000018  0.000008 -0.000169 -0.000179
  0B   1dx2y2     0.000063  0.000641 -0.000239 -0.000011  0.000098  0.000021
  0B   1dxy       0.000017  0.000161  0.000091  0.000087  0.000053  0.000025
  1C   1s         0.004060  0.000000 -0.174148  0.000510  0.000480  0.001309
  1C   2s        -0.008036 -0.000020  0.412235 -0.000853  0.000139 -0.010642
  1C   3s        -0.001283  0.000299  0.078160 -0.001981 -0.006740  0.032276
  1C   1pz        0.057974 -0.000030 -0.004817 -0.129095  0.112127 -0.385867
  1C   1px        0.091722 -0.000020  0.003396 -0.381830  0.075119  0.156165
  1C   1py        0.326898 -0.000005  0.000867  0.132344  0.323372  0.073684
  1C   2pz        0.011142  0.000206 -0.007063 -0.053192  0.012135 -0.159572
  1C   2px        0.018123  0.000056  0.004017 -0.157661 -0.020062  0.056759
  1C   2py        0.064180 -0.000024 -0.000722  0.053460 -0.050896  0.007947
  1C   1dz2       0.000206 -0.000007 -0.001760  0.001037 -0.000366  0.002115
  1C   1dxz      -0.000315 -0.000002  0.000515  0.001532  0.000060 -0.001232
  1C   1dyz      -0.000899  0.000001  0.000895 -0.000883 -0.000353 -0.000746
  1C   1dx2y2     0.000364 -0.000014 -0.002186 -0.000285  0.000092  0.000245
  1C   1dxy      -0.000613  0.000007  0.001276 -0.000522  0.000134  0.000193
  2H   1s         0.000189 -0.004883  0.001144  0.000040  0.001190 -0.005188
  2H   2s         0.001196  0.012985 -0.011759  0.002113 -0.003366 -0.005962
  2H   1pz       -0.000071  0.000109 -0.000092 -0.000021 -0.000075  0.000188
  2H   1px        0.000035 -0.000116  0.000080  0.000069  0.000050  0.000024
  2H   1py        0.000002 -0.000449  0.000436 -0.000057  0.000117  0.000813
  3H   1s        -0.000046 -0.000540  0.000008  0.000141  0.000541 -0.003326
  3H   2s         0.000589  0.001223 -0.000855 -0.002610 -0.001003  0.000269
  3H   1pz       -0.000023  0.000091  0.000058  0.000060 -0.000052  0.000176
  3H   1px       -0.000025 -0.000254  0.000005 -0.000024 -0.000030 -0.000441
  3H   1py       -0.000004 -0.000114 -0.000036 -0.000049 -0.000015 -0.000102
  4H   1s        -0.000068 -0.000234 -0.000111 -0.000062  0.000436 -0.003677
  4H   2s         0.001235  0.003876  0.000944  0.003461  0.001673  0.002458
  4H   1pz       -0.000041  0.000085 -0.000006 -0.000097 -0.000124  0.000314
  4H   1px        0.000022  0.000103 -0.000052 -0.000006  0.000009  0.000378
  4H   1py        0.000006  0.000040  0.000001  0.000049  0.000030 -0.000161
  5H   1s        -0.000445 -0.000010  0.001768  0.000263  0.002093 -0.016463
  5H   2s         0.003687  0.002292 -0.006294  0.001375  0.014658 -0.006033
  5H   1pz        0.000042  0.000125 -0.000217 -0.000127  0.000072  0.001107
  5H   1px        0.000032  0.000035  0.000215 -0.000288  0.000051 -0.000512
  5H   1py        0.000096 -0.000002  0.000308  0.000142  0.000057 -0.000330
  6O   1s        -0.196341  0.000005 -0.125342  0.000154  0.095708  0.008999
  6O   2s        -0.400254  0.000052 -0.261537  0.000557  0.198272  0.016966
  6O   3s        -0.138898 -0.000177 -0.289091 -0.000545  0.216106  0.022558
  6O   1pz       -0.020017  0.000015  0.056923 -0.103661 -0.027874 -0.328035
  6O   1px       -0.040568 -0.000000  0.087959 -0.306844 -0.118284  0.099826
  6O   1py       -0.133963 -0.000003  0.302812  0.107390 -0.366081 -0.031464
  6O   2pz        0.002739 -0.000122  0.034224 -0.056487 -0.016445 -0.178099
  6O   2px       -0.002823 -0.000017  0.042889 -0.166794 -0.058127  0.055069
  6O   2py       -0.005380 -0.000035  0.154742  0.058129 -0.181563 -0.014577
  6O   1dz2       0.005505  0.000001 -0.007525 -0.001584  0.008205 -0.004183
  6O   1dxz      -0.000936 -0.000001  0.001103 -0.004687 -0.000418 -0.005413
  6O   1dyz      -0.002662 -0.000005  0.003926 -0.005700 -0.001262 -0.020740
  6O   1dx2y2     0.007994  0.000004 -0.011536 -0.012966  0.011420  0.002488
  6O   1dxy      -0.005360 -0.000003  0.007639 -0.017546 -0.008545  0.006735
  7O   1s         0.188721  0.000004 -0.126111 -0.001039 -0.093904 -0.016612
  7O   2s         0.385067  0.000020 -0.263330 -0.001866 -0.194455 -0.035569
  7O   3s         0.131277 -0.000092 -0.290102 -0.003533 -0.210707 -0.039590
  7O   1pz       -0.026178  0.000002 -0.051244 -0.106552 -0.013757 -0.327101
  7O   1px       -0.033440  0.000000 -0.083487 -0.312882 -0.113433  0.105018
  7O   1py       -0.129278  0.000003 -0.308114  0.098437 -0.370033 -0.019420
  7O   2pz       -0.004102 -0.000033 -0.021294 -0.057812  0.000020 -0.175856
  7O   2px        0.000077 -0.000000 -0.044755 -0.169796 -0.058389  0.057410
  7O   2py       -0.004053  0.000032 -0.157602  0.054004 -0.184301 -0.007606
  7O   1dz2      -0.005027  0.000003 -0.007282  0.002427 -0.008253  0.006291
  7O   1dxz       0.000999 -0.000001  0.001259  0.006080  0.000695  0.003739
  7O   1dyz       0.003458  0.000002  0.005101  0.005426  0.002156  0.020717
  7O   1dx2y2    -0.008013  0.000002 -0.012031  0.011493 -0.011953 -0.001785
  7O   1dxy       0.004379 -0.000001  0.006747  0.018373  0.007615 -0.007072
  8O   1s         0.000001 -0.277403  0.000036 -0.000012  0.000004  0.000305
  8O   2s         0.000012 -0.556329  0.000489 -0.000110  0.000207  0.000903
  8O   3s        -0.000045 -0.277546 -0.002064  0.000414 -0.000970 -0.000748
  8O   1pz       -0.000000  0.031432 -0.000034 -0.000070 -0.000059  0.001949
  8O   1px       -0.000001 -0.090455 -0.000047 -0.000038 -0.000046  0.000607
  8O   1py       -0.000001  0.072423 -0.000003 -0.000005 -0.000038  0.000258
  8O   2pz        0.000048 -0.003428  0.000999 -0.000295  0.000538  0.001479
  8O   2px        0.000001 -0.004754  0.000083 -0.000025  0.000041  0.000269
  8O   2py        0.000020 -0.002531  0.000329 -0.000069  0.000230  0.000384
  8O   1dz2      -0.000005 -0.002460 -0.000039  0.000013 -0.000027 -0.000067
  8O   1dxz       0.000002 -0.002162  0.000021 -0.000005  0.000012  0.000071
  8O   1dyz      -0.000005 -0.001549 -0.000038  0.000013 -0.000023 -0.000086
  8O   1dx2y2     0.000001 -0.002026  0.000007 -0.000004  0.000003  0.000034
  8O   1dxy       0.000001  0.004565  0.000010  0.000001  0.000006 -0.000002
  9H   1s         0.000016 -0.196724  0.000076 -0.000101  0.000057  0.001385
  9H   2s        -0.000053 -0.015780 -0.000895  0.000352 -0.000657 -0.000169
  9H   1pz       -0.000001  0.022010 -0.000010 -0.000002 -0.000004 -0.000014
  9H   1px        0.000004  0.021938  0.000010 -0.000007  0.000016 -0.000103
  9H   1py       -0.000004 -0.008931 -0.000017  0.000001 -0.000025  0.000072
 10H   1s        -0.000008 -0.189397  0.000166  0.000032  0.000121 -0.001671
 10H   2s         0.000086 -0.015138  0.004045 -0.001007  0.001853  0.002189
 10H   1pz        0.000025 -0.031136  0.000113 -0.000027  0.000088  0.000076
 10H   1px       -0.000005 -0.000642  0.000014  0.000016 -0.000003  0.000024
 10H   1py        0.000010 -0.011389  0.000047 -0.000008  0.000051  0.000023
                     12        13        14        15        16        17   
                  -0.28068  -0.21508  -0.19839  -0.19646  -0.14810  -0.06809
                   2.00000   2.00000   2.00000   2.00000   2.00000   2.00000
                  --------  --------  --------  --------  --------  --------
  0B   1s        -0.028620  0.217453  0.000215 -0.004823 -0.038410  0.005323
  0B   2s        -0.049157  0.382391  0.000131 -0.003741 -0.085761  0.036236
  0B   3s        -0.016200  0.169108  0.008122 -0.085390 -0.005591 -0.207500
  0B   1pz        0.004028  0.003185 -0.000005  0.002133 -0.012072  0.038976
  0B   1px       -0.001501 -0.003960  0.000032 -0.000116  0.000400 -0.024616
  0B   1py        0.015434 -0.010662  0.000008  0.002221 -0.029915 -0.006108
  0B   2pz        0.005172  0.002865 -0.000064  0.028822  0.074713 -0.106436
  0B   2px        0.000172  0.001256  0.002083 -0.013909 -0.004980  0.032999
  0B   2py       -0.004007  0.003299  0.002900  0.003273  0.024027 -0.065418
  0B   1dz2       0.000210  0.000359 -0.000107 -0.000845 -0.001687  0.003360
  0B   1dxz       0.000706 -0.000198 -0.000015  0.000218  0.000460  0.000740
  0B   1dyz      -0.001761  0.000613 -0.000044 -0.000325  0.000992  0.001431
  0B   1dx2y2     0.001881 -0.000989 -0.000133  0.000729 -0.001864 -0.000762
  0B   1dxy       0.000374  0.000097  0.000003  0.000045 -0.000197 -0.000152
  1C   1s        -0.000103  0.001085 -0.000006 -0.000047 -0.000320  0.000076
  1C   2s         0.000624 -0.006375  0.000016  0.000924  0.002171 -0.002187
  1C   3s        -0.002383  0.023816 -0.000429 -0.007360 -0.009590  0.016255
  1C   1pz        0.004538 -0.021630 -0.000508  0.001854  0.003895 -0.003355
  1C   1px       -0.001928  0.008404 -0.001201  0.000103 -0.001386  0.001327
  1C   1py       -0.000543  0.001763 -0.000312  0.002039 -0.000077  0.000180
  1C   2pz        0.001177 -0.001622  0.000290  0.004338 -0.000688  0.002321
  1C   2px       -0.000349  0.000566  0.000619  0.014308  0.002162 -0.002734
  1C   2py        0.000312  0.000434  0.005746  0.044576  0.005694 -0.005228
  1C   1dz2      -0.000105  0.000710  0.005580 -0.016574 -0.000509  0.000448
  1C   1dxz       0.000057 -0.000918  0.014350 -0.011818  0.000039 -0.000201
  1C   1dyz      -0.000019 -0.001446  0.014958 -0.054127 -0.000587 -0.000017
  1C   1dx2y2    -0.000019  0.000428  0.032588  0.002001 -0.000089  0.000198
  1C   1dxy       0.000017  0.000294  0.047283  0.021260  0.000317 -0.000095
  2H   1s        -0.049124  0.192324  0.000487 -0.006541  0.007128  0.019309
  2H   2s        -0.007462  0.061489 -0.007585  0.002680  0.045125  0.116327
  2H   1pz       -0.003032  0.003453 -0.000020 -0.000408  0.004526 -0.000075
  2H   1px        0.001429 -0.002260  0.000016  0.000229 -0.000929  0.000741
  2H   1py       -0.000009 -0.015030  0.000194  0.000609  0.004185 -0.002120
  3H   1s        -0.020194  0.169013  0.000162 -0.004072 -0.035864 -0.034296
  3H   2s        -0.009425  0.046675  0.000150  0.003267 -0.044637  0.040633
  3H   1pz        0.000538 -0.005354 -0.000032 -0.000153  0.000242  0.000305
  3H   1px       -0.002051  0.013913  0.000035 -0.000570 -0.003040 -0.000154
  3H   1py       -0.000983  0.003180 -0.000032 -0.000210 -0.000304  0.000654
  4H   1s        -0.017266  0.173622  0.000317 -0.005037 -0.036681 -0.007679
  4H   2s        -0.008084  0.053665 -0.002667  0.015796 -0.043037  0.069586
  4H   1pz        0.001417 -0.010013  0.000034 -0.000269  0.001275  0.000103
  4H   1px        0.001563 -0.010409 -0.000026  0.000484  0.002371 -0.000267
  4H   1py       -0.001012  0.005857 -0.000046 -0.000154 -0.000913  0.001449
  5H   1s        -0.014653  0.175095  0.000239  0.001750 -0.055832  0.042710
  5H   2s         0.001291  0.053238 -0.000664  0.077667  0.021569 -0.005349
  5H   1pz       -0.001033  0.012907 -0.000118 -0.000887 -0.002338 -0.000623
  5H   1px        0.000163 -0.001624 -0.000373  0.000477  0.000178  0.000466
  5H   1py       -0.000790  0.006897  0.000089 -0.000182 -0.000565  0.000578
  6O   1s         0.000160 -0.002454 -0.000009  0.004618  0.000972 -0.001119
  6O   2s         0.000336 -0.005520 -0.000473  0.008237  0.001876 -0.002050
  6O   3s         0.001028 -0.009762  0.003822  0.038241  0.007917 -0.010120
  6O   1pz        0.004148 -0.010534 -0.145900  0.440146  0.009138 -0.005033
  6O   1px       -0.001477  0.003056 -0.422091 -0.164699 -0.003143  0.000928
  6O   1py        0.000334 -0.003165  0.150824 -0.035540  0.000360 -0.001408
  6O   2pz        0.002342 -0.005550 -0.101872  0.306573  0.005676 -0.003530
  6O   2px       -0.000763  0.001112 -0.295203 -0.112070 -0.001340 -0.000071
  6O   2py        0.000399 -0.003473  0.105990 -0.017245  0.001873 -0.003222
  6O   1dz2       0.000032  0.000113 -0.000742  0.002967 -0.000045  0.000114
  6O   1dxz       0.000076 -0.000397 -0.002704  0.003860  0.000158 -0.000122
  6O   1dyz       0.000253 -0.000954 -0.004066  0.013397  0.000376 -0.000262
  6O   1dx2y2    -0.000043  0.000258 -0.008771 -0.000626 -0.000101  0.000130
  6O   1dxy      -0.000088  0.000255 -0.011550 -0.005324 -0.000093  0.000006
  7O   1s         0.000345 -0.002335 -0.000051 -0.004655  0.000353 -0.001069
  7O   2s         0.000762 -0.005020  0.000254 -0.009104  0.000944 -0.002764
  7O   3s         0.000984 -0.010289 -0.003459 -0.032585 -0.000459 -0.002195
  7O   1pz        0.003544 -0.028700  0.147077 -0.439577 -0.000830 -0.003463
  7O   1px       -0.001403  0.011597  0.423135  0.162214 -0.000136  0.001920
  7O   1py       -0.000228  0.005881 -0.138253  0.028475 -0.001868  0.002062
  7O   2pz        0.001994 -0.018135  0.103047 -0.302378  0.000251 -0.002678
  7O   2px       -0.000839  0.007964  0.296162  0.113012 -0.000373  0.001740
  7O   2py       -0.000332  0.005623 -0.096436  0.024985 -0.001202  0.002134
  7O   1dz2      -0.000109  0.000848 -0.002003  0.005123 -0.000107  0.000221
  7O   1dxz      -0.000023  0.000093 -0.004366  0.001902  0.000001 -0.000042
  7O   1dyz      -0.000228  0.001377 -0.003396  0.013080 -0.000061  0.000169
  7O   1dx2y2    -0.000005  0.000187 -0.007402 -0.000349 -0.000084  0.000092
  7O   1dxy       0.000104 -0.000685 -0.011882 -0.005082  0.000079 -0.000136
  8O   1s        -0.005575 -0.025152  0.000007  0.001461 -0.105609 -0.003791
  8O   2s        -0.011760 -0.049711  0.000137  0.003265 -0.208548 -0.005167
  8O   3s        -0.007718 -0.075050 -0.000558  0.002539 -0.321557 -0.033143
  8O   1pz        0.455153  0.064860 -0.000011 -0.001930 -0.168749 -0.163441
  8O   1px        0.194147  0.071133 -0.000054 -0.004244  0.375110  0.357013
  8O   1py        0.011875 -0.041289 -0.000072  0.002566 -0.335888  0.481537
  8O   2pz        0.195891  0.030314  0.000370  0.000510 -0.124467 -0.122212
  8O   2px        0.084313  0.038563  0.000028 -0.002321  0.240714  0.280418
  8O   2py        0.003685 -0.027051  0.000135  0.002189 -0.218907  0.377723
  8O   1dz2      -0.008607 -0.001726 -0.000015  0.000006 -0.005456  0.001071
  8O   1dxz       0.011227  0.000973  0.000008  0.000026 -0.006493 -0.005971
  8O   1dyz      -0.010718 -0.000622 -0.000009 -0.000069  0.005845 -0.001278
  8O   1dx2y2     0.005958  0.000792 -0.000000 -0.000035  0.002259  0.015449
  8O   1dxy      -0.004146 -0.002192  0.000002  0.000144 -0.012706  0.004614
  9H   1s         0.317922  0.074188  0.000055 -0.003336  0.198642 -0.000606
  9H   2s         0.122959  0.034902 -0.000593 -0.003315  0.076902  0.009934
  9H   1pz       -0.001584 -0.002544  0.000004  0.000161 -0.023242 -0.008162
  9H   1px       -0.021733 -0.003097  0.000011  0.000155  0.000893  0.016755
  9H   1py        0.016526  0.001031 -0.000020 -0.000103 -0.008043  0.023761
 10H   1s        -0.305673 -0.007675  0.000096 -0.000633  0.201012 -0.003708
 10H   2s        -0.111981  0.003228  0.001221  0.003583 -0.006143  0.059288
 10H   1pz       -0.018985 -0.005348  0.000015  0.000507  0.014520 -0.004666
 10H   1px        0.012138  0.005200  0.000003 -0.000327  0.016721  0.014652
 10H   1py       -0.017347 -0.008380  0.000022  0.000492 -0.004808  0.020650
                     18        19        20        21        22        23   
                  -0.04446  -0.03679  -0.03259   0.11380   0.11607   0.16231
                   2.00000   2.00000   2.00000   0.00000   0.00000   0.00000
                  --------  --------  --------  --------  --------  --------
  0B   1s        -0.008427  0.001343  0.003548 -0.001861 -0.000982 -0.033357
  0B   2s        -0.011468  0.011358  0.012723 -0.014880  0.004162 -0.133329
  0B   3s        -0.033791 -0.074522 -0.018860 -0.088169  0.059565  0.085157
  0B   1pz        0.182222 -0.306023 -0.015248 -0.004019 -0.003196 -0.092851
  0B   1px       -0.034480 -0.039595  0.357634  0.004017  0.002395  0.020908
  0B   1py       -0.300728 -0.175175 -0.049636  0.004585 -0.007469 -0.022725
  0B   2pz       -0.090411  0.108434 -0.010129  0.015503 -0.010242  0.003663
  0B   2px        0.014676  0.023528 -0.163593  0.024794  0.007399  0.046305
  0B   2py        0.115394  0.065946  0.013226  0.003876 -0.004038  0.092792
  0B   1dz2      -0.003967 -0.011877 -0.007086 -0.001431  0.000754  0.003332
  0B   1dxz      -0.003626  0.006880 -0.013196  0.000745 -0.001864 -0.003033
  0B   1dyz       0.001373 -0.011006  0.000492  0.000331 -0.000042 -0.002303
  0B   1dx2y2    -0.017085 -0.001160  0.005281 -0.000328  0.000888  0.001700
  0B   1dxy       0.004062  0.000612  0.007223 -0.000186  0.000110  0.000457
  1C   1s        -0.000228 -0.000130  0.000044 -0.023456  0.007425 -0.086647
  1C   2s        -0.003824  0.012842  0.004076  0.034139 -0.005599  0.123095
  1C   3s         0.039923 -0.094917 -0.033338  0.440562 -0.200241  1.648525
  1C   1pz       -0.007761  0.013847  0.005096 -0.302649  0.514982  0.194182
  1C   1px        0.004572 -0.006145 -0.000669  0.509650  0.304622 -0.127264
  1C   1py        0.001233 -0.000157 -0.000800 -0.089557 -0.176644 -0.000060
  1C   2pz        0.006769 -0.007784 -0.005361 -0.285971  0.458779  0.064834
  1C   2px        0.000013  0.012524 -0.001412  0.456296  0.261860 -0.082368
  1C   2py        0.013564  0.025193  0.003745 -0.065626 -0.164593  0.001193
  1C   1dz2       0.000730 -0.004381 -0.001444  0.009933 -0.006986  0.031801
  1C   1dxz      -0.000931  0.001443  0.000283 -0.004790  0.000871 -0.004004
  1C   1dyz      -0.001338 -0.000912  0.000311 -0.004951  0.002924 -0.020097
  1C   1dx2y2     0.000827 -0.002576 -0.000732  0.015020 -0.004739  0.052035
  1C   1dxy       0.000135  0.002190  0.000503 -0.008548  0.002836 -0.032028
  2H   1s         0.336380  0.158006  0.010600 -0.004630  0.003455 -0.028573
  2H   2s         0.242144  0.126053  0.011746  0.039874 -0.029463 -0.085930
  2H   1pz       -0.000494  0.009711  0.000547  0.000497 -0.000101  0.001282
  2H   1px       -0.001459 -0.000059 -0.008842 -0.000355  0.000088  0.000033
  2H   1py       -0.003604 -0.000481  0.000976 -0.000569  0.000489  0.002285
  3H   1s        -0.165371  0.033146  0.333809  0.002805  0.005367  0.027939
  3H   2s        -0.102363  0.048171  0.241829  0.038727  0.000833  0.067700
  3H   1pz       -0.001624  0.006682 -0.003957 -0.000548  0.000511  0.003212
  3H   1px       -0.005464  0.002505  0.003677  0.000656 -0.000535  0.000186
  3H   1py        0.005461  0.004441  0.004055  0.000002  0.000258  0.000899
  4H   1s        -0.214516  0.166571 -0.256166 -0.002709 -0.004413  0.009540
  4H   2s        -0.141021  0.148950 -0.176613 -0.005145 -0.009630  0.007863
  4H   1pz        0.001355  0.003130  0.006640 -0.000089  0.000420  0.003278
  4H   1px        0.006465 -0.003812 -0.002123 -0.000167 -0.000103 -0.001446
  4H   1py        0.003788  0.006982 -0.002403 -0.000278  0.000278  0.001037
  5H   1s         0.029341 -0.362080 -0.080789 -0.009303  0.001353 -0.054814
  5H   2s         0.008895 -0.251126 -0.063158  0.090356 -0.074480  0.007696
  5H   1pz       -0.003869 -0.004085 -0.002205  0.001390 -0.001458 -0.011081
  5H   1px        0.000854  0.002053 -0.008170  0.000199  0.001601  0.003973
  5H   1py        0.007529 -0.002263 -0.000304 -0.000605  0.000002  0.001102
  6O   1s        -0.001870  0.010249  0.002871 -0.023570  0.010072 -0.092885
  6O   2s        -0.004794  0.023163  0.006606 -0.054222  0.022824 -0.218264
  6O   3s        -0.004388  0.057284  0.014704 -0.150787  0.068307 -0.606112
  6O   1pz       -0.002709  0.047473  0.012777  0.177231 -0.308706 -0.121444
  6O   1px       -0.000454 -0.013843  0.000015 -0.333693 -0.176982 -0.009890
  6O   1py       -0.006579  0.009312  0.003090 -0.014034  0.139298 -0.245835
  6O   2pz       -0.002896  0.031966  0.009299  0.173614 -0.303467 -0.129054
  6O   2px        0.000120 -0.005693  0.001207 -0.331817 -0.171991 -0.032319
  6O   2py       -0.005471  0.016706  0.004593 -0.026797  0.143353 -0.320586
  6O   1dz2       0.000150 -0.000909 -0.000296 -0.001007  0.003202  0.004798
  6O   1dxz      -0.000172  0.001144  0.000253  0.000459  0.004303  0.000314
  6O   1dyz      -0.000336  0.001830  0.000558 -0.006692  0.009538  0.003603
  6O   1dx2y2     0.000283 -0.000778 -0.000139  0.005856  0.004460  0.003693
  6O   1dxy       0.000020 -0.000328  0.000035  0.008471  0.005437 -0.006267
  7O   1s        -0.004453  0.005237  0.002409 -0.023271  0.009762 -0.093034
  7O   2s        -0.009618  0.013122  0.005665 -0.051756  0.020516 -0.220569
  7O   3s        -0.027248  0.015660  0.010960 -0.166447  0.081622 -0.591145
  7O   1pz       -0.016624  0.009418  0.007814  0.203065 -0.321765 -0.037393
  7O   1px        0.008845 -0.009593 -0.001338 -0.296085 -0.194453  0.126682
  7O   1py        0.003452 -0.018883 -0.006722  0.123340  0.076380  0.239827
  7O   2pz       -0.008543  0.008789  0.005411  0.205449 -0.319932 -0.018585
  7O   2px        0.007339 -0.008472 -0.001167 -0.287502 -0.193149  0.145061
  7O   2py        0.008889 -0.015232 -0.006948  0.136849  0.066269  0.309492
  7O   1dz2       0.000803 -0.000839 -0.000476  0.002462 -0.002956  0.001567
  7O   1dxz      -0.000263  0.000179 -0.000021  0.000213 -0.003576 -0.001530
  7O   1dyz       0.000587 -0.000413 -0.000220  0.005355 -0.009426 -0.007181
  7O   1dx2y2     0.000281 -0.000490 -0.000229 -0.003132 -0.005951  0.005622
  7O   1dxy      -0.000503  0.000538  0.000117 -0.010290 -0.004692  0.000618
  8O   1s        -0.001893 -0.003457 -0.003274  0.000101 -0.000427 -0.006909
  8O   2s        -0.003597 -0.007154 -0.007093 -0.000659 -0.000076 -0.014504
  8O   3s        -0.016616 -0.027600 -0.012696  0.005555 -0.007433 -0.043591
  8O   1pz        0.090458  0.051335  0.005660  0.000491  0.000496 -0.001445
  8O   1px       -0.067272 -0.012956  0.036268 -0.000480 -0.000177 -0.014123
  8O   1py       -0.000687  0.107031  0.053059 -0.000390  0.001246  0.016412
  8O   2pz        0.070330  0.038082  0.006405 -0.001833  0.002878 -0.006878
  8O   2px       -0.051119 -0.008535  0.026977 -0.000364 -0.000300 -0.018641
  8O   2py        0.000217  0.081596  0.041327 -0.001241  0.001754  0.015947
  8O   1dz2       0.001172  0.001171  0.000024  0.000086 -0.000074  0.000228
  8O   1dxz       0.001963  0.000688  0.000010 -0.000042  0.000044  0.000033
  8O   1dyz      -0.000587 -0.000760 -0.000334  0.000074 -0.000090  0.000120
  8O   1dx2y2    -0.001389  0.001044  0.001498 -0.000018  0.000018 -0.000190
  8O   1dxy       0.000794  0.002270  0.000727 -0.000036  0.000052  0.000506
  9H   1s         0.001522 -0.008762  0.005967 -0.000413  0.000480  0.008614
  9H   2s        -0.000520  0.023562 -0.006819  0.001467 -0.000707  0.068445
  9H   1pz        0.004658  0.002762  0.000470  0.000074 -0.000022  0.000561
  9H   1px       -0.002911  0.001060  0.001186 -0.000009  0.000071  0.000826
  9H   1py        0.000220  0.003580  0.003445  0.000032 -0.000010 -0.000196
 10H   1s        -0.004119 -0.012284 -0.002160 -0.000248  0.000504  0.005147
 10H   2s         0.041217  0.048979  0.025749 -0.010012  0.013549  0.008048
 10H   1pz       -0.011232 -0.009778 -0.002868 -0.000296  0.000221 -0.001048
 10H   1px        0.000592  0.002625 -0.000562  0.000010 -0.000032 -0.000127
 10H   1py       -0.007045 -0.005135 -0.000633 -0.000039 -0.000079 -0.000699
                     24        25        26        27        28        29   
                   0.19354   0.28513   0.31294   0.31990   0.33865   0.39593
                   0.00000   0.00000   0.00000   0.00000   0.00000   0.00000
                  --------  --------  --------  --------  --------  --------
  0B   1s         0.036733  0.080322  0.003081  0.054890  0.127500  0.189594
  0B   2s         0.111096  0.259043  0.017775  0.264254  0.537589  1.000108
  0B   3s         0.457904  0.996263 -0.045324  0.327050  0.975497  1.195504
  0B   1pz       -0.030250  0.078433  0.002130 -0.214533 -0.088104  0.124827
  0B   1px       -0.021655 -0.015087  0.203871 -0.036340  0.081068 -0.070700
  0B   1py       -0.058039 -0.238167 -0.079148 -0.129834  0.068383  0.319645
  0B   2pz       -0.047819 -0.138644 -0.134192  1.728241  0.904582 -0.639003
  0B   2px        0.070195  0.202067 -1.835700  0.176782 -0.552290  0.161678
  0B   2py        0.024304  1.036763  0.570046  0.739907 -1.362413  0.538566
  0B   1dz2      -0.006357 -0.001812  0.008151  0.011328 -0.008956  0.000382
  0B   1dxz       0.001137  0.001299  0.014894 -0.006315  0.002888  0.001941
  0B   1dyz      -0.011593 -0.015048 -0.000481  0.017005 -0.015346  0.013006
  0B   1dx2y2     0.001928  0.011196 -0.003906 -0.002136 -0.013673  0.007158
  0B   1dxy       0.000165  0.006966 -0.010777 -0.001006  0.008494 -0.010332
  1C   1s        -0.007783  0.003213 -0.004699  0.009449 -0.031965 -0.035986
  1C   2s         0.014050 -0.009248  0.017117 -0.024727  0.111552  0.140485
  1C   3s         0.129965 -0.050796  0.016898 -0.181153  0.224019  0.123351
  1C   1pz        0.021661 -0.013889  0.049391 -0.044851  0.132341  0.167116
  1C   1px       -0.012545  0.004722  0.087865 -0.003952 -0.041018 -0.062333
  1C   1py       -0.000650  0.000173 -0.035545  0.008015 -0.010732 -0.009954
  1C   2pz        0.008228 -0.001752 -0.076220 -0.090137 -0.048977 -0.018730
  1C   2px       -0.000953  0.027631 -0.117456 -0.064450  0.006034  0.232266
  1C   2py        0.015636  0.071647 -0.159370 -0.345749  0.017112  0.672027
  1C   1dz2       0.001771  0.000444 -0.001199  0.006755  0.000551  0.000743
  1C   1dxz       0.000230 -0.000767 -0.003851 -0.002160  0.003905  0.003535
  1C   1dyz      -0.002081 -0.000866  0.003506  0.004013 -0.003070 -0.007308
  1C   1dx2y2     0.004087 -0.000276  0.004230 -0.001421  0.011408  0.014091
  1C   1dxy      -0.002477  0.000014 -0.002414 -0.000937 -0.007388 -0.009198
  2H   1s         0.057576 -0.001671 -0.024282 -0.029363  0.186982 -0.160897
  2H   2s        -0.149182 -1.342918 -0.408520 -0.870687  1.302038 -1.225504
  2H   1pz       -0.005824 -0.012748 -0.000277  0.019520  0.000334  0.003088
  2H   1px        0.000715  0.005186 -0.018700 -0.000132 -0.001638 -0.002913
  2H   1py       -0.005328 -0.017343  0.001638 -0.001844 -0.012687  0.005559
  3H   1s         0.028985  0.065452 -0.129094 -0.015087 -0.022811  0.039870
  3H   2s        -0.076313  0.126915 -1.664214 -0.483889 -1.681170 -0.283773
  3H   1pz       -0.000943 -0.005367 -0.004533  0.012812 -0.001879 -0.008385
  3H   1px       -0.000211 -0.001053 -0.003579  0.004987  0.008772  0.008944
  3H   1py       -0.000541  0.003824  0.007305  0.008359 -0.013535  0.005472
  4H   1s         0.045311  0.015245  0.131263 -0.056442 -0.018176  0.108965
  4H   2s        -0.194449 -0.007919  1.689141 -1.269510 -1.232258 -0.414379
  4H   1pz       -0.002632 -0.000929  0.006614  0.007335 -0.000007 -0.016972
  4H   1px        0.001400  0.004699 -0.006572 -0.005056 -0.011105 -0.005716
  4H   1py       -0.002930  0.008122  0.001038  0.011011 -0.009340  0.003464
  5H   1s        -0.056560 -0.025383  0.029316  0.165809 -0.045715  0.109137
  5H   2s        -0.246487 -0.167686  0.422424  1.848792 -0.228493 -1.302321
  5H   1pz        0.000896  0.002509 -0.004544  0.000908  0.013950  0.024104
  5H   1px        0.000869 -0.000142 -0.015914  0.003714 -0.006889 -0.001939
  5H   1py        0.003029  0.015695  0.003229 -0.001085 -0.003602  0.007078
  6O   1s        -0.005215  0.005778 -0.009061 -0.014099 -0.013421  0.016624
  6O   2s        -0.012018  0.012348 -0.016314 -0.033770 -0.033596  0.028435
  6O   3s        -0.035444  0.069014 -0.142094 -0.173184 -0.083019  0.392175
  6O   1pz       -0.002343  0.014975 -0.009692 -0.036486 -0.004673  0.044101
  6O   1px       -0.004927 -0.005079  0.006548  0.023542 -0.014285 -0.040425
  6O   1py       -0.020902 -0.002514 -0.001100  0.032022 -0.042058 -0.078996
  6O   2pz       -0.006910  0.009302 -0.005541 -0.003452 -0.015332  0.017787
  6O   2px       -0.003857  0.003236 -0.006931 -0.006898 -0.011812  0.014801
  6O   2py       -0.023831  0.021314 -0.035807 -0.013873 -0.060804  0.054467
  6O   1dz2      -0.000016 -0.000845  0.000793  0.003328 -0.000340 -0.005416
  6O   1dxz       0.000485  0.000243 -0.000648 -0.003154  0.002129  0.004838
  6O   1dyz       0.000780  0.000195  0.001249 -0.003337  0.004575  0.009128
  6O   1dx2y2     0.000059 -0.000630  0.003204  0.000961 -0.000740 -0.006191
  6O   1dxy      -0.000616  0.000410  0.002111  0.000113 -0.001263  0.000553
  7O   1s        -0.008097 -0.000929  0.006738  0.020259 -0.010506 -0.030360
  7O   2s        -0.018596  0.000470  0.012467  0.037181 -0.021218 -0.051589
  7O   3s        -0.059806 -0.036343  0.121261  0.312198 -0.101299 -0.530100
  7O   1pz       -0.005115 -0.001688  0.024871  0.028289  0.020909  0.017116
  7O   1px        0.009021 -0.004320  0.002219 -0.012956  0.011287  0.001209
  7O   1py        0.018097 -0.003227  0.013986  0.003625  0.042309  0.030008
  7O   2pz       -0.003166 -0.000839 -0.002606 -0.002369  0.008638  0.023952
  7O   2px        0.012235 -0.000396 -0.003112 -0.029574  0.020074  0.041697
  7O   2py        0.027167 -0.002470 -0.024392 -0.090124  0.064107  0.147368
  7O   1dz2       0.000149  0.000793 -0.003114 -0.001813 -0.003771 -0.001317
  7O   1dxz      -0.000084 -0.000046 -0.001454  0.001218  0.000261 -0.000456
  7O   1dyz      -0.000753  0.000222 -0.000922  0.001747 -0.003924 -0.006135
  7O   1dx2y2     0.000519  0.000276 -0.002564 -0.002791 -0.000777  0.002055
  7O   1dxy       0.000086 -0.000240 -0.001837  0.002115  0.001759  0.000983
  8O   1s         0.099726  0.041323  0.000676 -0.005344  0.021463 -0.044096
  8O   2s         0.190111  0.091943  0.000477 -0.037202  0.041358 -0.096562
  8O   3s         0.766002  0.273456  0.022375  0.133632  0.218738 -0.345824
  8O   1pz        0.090342 -0.308072  0.028298  0.082341 -0.150890  0.122042
  8O   1px        0.246776 -0.040739  0.031001  0.041982 -0.062424  0.001476
  8O   1py       -0.137124 -0.023882  0.013771  0.082221 -0.026125  0.013941
  8O   2pz        0.146662 -0.416662  0.028817  0.083947 -0.244494  0.220116
  8O   2px        0.326599 -0.078755  0.026023  0.067389 -0.057876 -0.003032
  8O   2py       -0.186609 -0.061475  0.010188  0.028302 -0.035634  0.081977
  8O   1dz2      -0.003693 -0.003257  0.000561  0.000941  0.002038  0.000581
  8O   1dxz      -0.001248 -0.000686  0.000419 -0.001383 -0.000141  0.002506
  8O   1dyz       0.000930  0.000051  0.001282  0.004737  0.000838 -0.001865
  8O   1dx2y2     0.002007  0.000233 -0.000480 -0.002368  0.000277  0.000968
  8O   1dxy      -0.005865 -0.001429  0.000411  0.000340 -0.002401  0.000959
  9H   1s        -0.191274  0.063179 -0.010068 -0.078400  0.054122  0.040951
  9H   2s        -1.186455  0.569336 -0.088845 -0.249572  0.390960 -0.222266
  9H   1pz       -0.011743 -0.002681 -0.001163 -0.003090  0.008136  0.003602
  9H   1px       -0.010571  0.009358 -0.003526  0.002354  0.005147  0.001581
  9H   1py        0.003248 -0.005429  0.000036 -0.004710 -0.003536  0.001084
 10H   1s        -0.089490 -0.192697  0.018673  0.046020 -0.061544  0.118644
 10H   2s        -0.183445 -1.092347  0.003701 -0.038896 -0.874311  0.895185
 10H   1pz        0.006360  0.014873 -0.004217 -0.012442 -0.006493  0.001387
 10H   1px        0.004665 -0.005264 -0.004534  0.007725  0.002438 -0.005389
 10H   1py       -0.003288 -0.004039 -0.003888 -0.022415 -0.000821  0.007620
                     30        31        32        33        34        35   
                   0.44355   0.45793   0.46868   0.48361   0.51978   0.53027
                   0.00000   0.00000   0.00000   0.00000   0.00000   0.00000
                  --------  --------  --------  --------  --------  --------
  0B   1s         0.031480 -0.014904  0.058357  0.008665  0.012153 -0.010933
  0B   2s         0.332592 -0.042455  0.531661 -0.455257  0.038590 -0.260032
  0B   3s        -1.949425 -0.839414 -2.444133  7.940643  0.613672  2.599187
  0B   1pz        0.376538  0.524573 -0.184277 -0.019084  0.055445  0.130519
  0B   1px       -0.362836  0.528460  0.457652  0.109533 -0.009452  0.109137
  0B   1py       -0.220058 -0.113703  0.166871 -0.250396 -0.049056  0.099540
  0B   2pz       -0.216280  0.710814 -0.761806 -0.635725 -0.059575  0.177775
  0B   2px       -0.063176  0.373560  0.596330  0.207336 -0.011217  0.360151
  0B   2py       -0.194890 -0.027459  0.145547 -0.280096 -0.100798  0.030105
  0B   1dz2      -0.016398  0.003379 -0.012302 -0.014209 -0.000281 -0.008199
  0B   1dxz       0.006154 -0.006168 -0.000438  0.004176 -0.000775 -0.017723
  0B   1dyz       0.004192  0.006509 -0.001856  0.013326 -0.000452  0.002842
  0B   1dx2y2    -0.004233 -0.005945  0.014224 -0.001330 -0.000631  0.004859
  0B   1dxy      -0.003100  0.002324 -0.002017 -0.011218 -0.001880  0.015162
  1C   1s        -0.052912 -0.029787  0.014894  0.033432 -0.281537 -0.007141
  1C   2s         0.232061  0.134801 -0.069170 -0.171625  1.433355  0.038414
  1C   3s         0.002186  0.009449 -0.031771  0.191803 -1.205318  0.024331
  1C   1pz        0.274983  0.103673 -0.126470 -0.082541 -0.451899  0.254398
  1C   1px       -0.103746 -0.208730 -0.057088 -0.211860  0.137813  0.710863
  1C   1py       -0.036794  0.048765  0.024541  0.048707  0.034542 -0.251941
  1C   2pz       -0.633180  0.037367 -0.225575 -0.073471  0.661842 -0.465976
  1C   2px       -0.420676  0.473024 -0.488634 -0.060471 -0.244222 -1.231556
[...]
  8O   1pz       -0.001317  0.007247 -0.000557  0.024300 -0.013721  0.014172
  8O   1px       -0.000670 -0.015690 -0.003978 -0.019319  0.037830 -0.045263
  8O   1py        0.000260 -0.022173  0.004005  0.018610 -0.032269  0.037324
  8O   2pz        0.002397 -0.070576 -0.022299 -0.134396 -0.038859  0.046834
  8O   2px        0.000551  0.148824  0.061370  0.329199  0.112734 -0.133610
  8O   2py        0.000338  0.205771  0.074819 -0.279718 -0.094797  0.113434
  8O   1dz2       0.000221 -0.033635  0.452605 -0.583460  0.097337 -0.112925
  8O   1dxz      -0.001432 -0.179717 -0.543446 -0.506309  0.082634 -0.099216
  8O   1dyz      -0.000416  0.211512 -0.705255  0.257692  0.046529 -0.051953
  8O   1dx2y2     0.001193  0.928795  0.140396  0.060532  0.047470 -0.057071
  8O   1dxy      -0.000227  0.320858 -0.238457 -0.688022 -0.111115  0.131739
  9H   1s        -0.000129  0.000800 -0.003171 -0.209433 -0.176146  0.210982
  9H   2s         0.000089 -0.001182  0.009994 -0.034175 -0.039095  0.043704
  9H   1pz       -0.000212  0.129936 -0.049927  0.381699  0.074208 -0.088442
  9H   1px       -0.001057 -0.275812  0.101060 -0.111184  0.096928 -0.115787
  9H   1py        0.000375 -0.381355  0.150852  0.208710 -0.045387  0.054107
 10H   1s         0.000578  0.000002 -0.007458 -0.188094 -0.163794  0.191083
 10H   2s         0.013005 -0.009000  0.054216 -0.115275 -0.045032  0.063469
 10H   1pz       -0.000994  0.061154  0.136946 -0.190025 -0.109556  0.126583
 10H   1px        0.000568 -0.135578 -0.286972 -0.383296  0.014045 -0.015641
 10H   1py       -0.001463 -0.185094 -0.393641  0.227000 -0.046452  0.054399
                     96        97        98        99   
                   3.54045   3.54393   3.86399   3.88958
                   0.00000   0.00000   0.00000   0.00000
                  --------  --------  --------  --------
  0B   1s        -0.001158 -0.000939  0.003756 -0.000541
  0B   2s        -0.012310 -0.023047  0.037723 -0.031584
  0B   3s        -0.381154  0.062296 -0.046306 -0.166681
  0B   1pz        0.004582  0.017114  0.003147  0.000810
  0B   1px        0.002871 -0.000201 -0.002684 -0.004990
  0B   1py       -0.005374  0.008441  0.000253  0.009109
  0B   2pz        0.035781 -0.081478  0.017002  0.086753
  0B   2px       -0.041874  0.001225 -0.034355 -0.027443
  0B   2py        0.011374 -0.025329 -0.048764 -0.013220
  0B   1dz2      -0.004560  0.013239  0.001872  0.004145
  0B   1dxz      -0.003742 -0.007576 -0.001715  0.000381
  0B   1dyz       0.029031  0.036189 -0.007831  0.041110
  0B   1dx2y2    -0.011516 -0.015867  0.016538 -0.013343
  0B   1dxy      -0.003182 -0.005927 -0.002878 -0.012575
  1C   1s        -0.001744  0.001144 -0.284402  0.010389
  1C   2s         0.013162 -0.012990  2.177911 -0.080715
  1C   3s        -0.015081  0.023081  1.090706 -0.042726
  1C   1pz       -0.023492 -0.051651 -0.008807 -0.000253
  1C   1px       -0.042782 -0.078145 -0.007471 -0.004448
  1C   1py       -0.144715 -0.280196  0.005439 -0.011305
  1C   2pz       -0.023992 -0.045215  0.047674 -0.007557
  1C   2px       -0.015305 -0.101770 -0.033134 -0.007071
  1C   2py       -0.084169 -0.346210 -0.030673 -0.039745
  1C   1dz2      -0.171297  0.190818 -0.640368  0.025440
  1C   1dxz      -0.113566  0.137064  0.107591 -0.003183
  1C   1dyz      -0.542891  0.606938  0.393107 -0.010873
  1C   1dx2y2     0.023578 -0.000170 -1.013077  0.037241
  1C   1dxy       0.231097 -0.207583  0.615195 -0.025595
  2H   1s        -0.001209 -0.008985  0.009579 -0.019796
  2H   2s         0.185469  0.097258  0.054629  0.268667
  2H   1pz       -0.009276  0.000065  0.000702 -0.009010
  2H   1px        0.004793  0.000300  0.002851  0.001758
  2H   1py       -0.008554 -0.011599 -0.004664 -0.017927
  3H   1s         0.002261  0.009266 -0.011457  0.001123
  3H   2s         0.090260  0.021879 -0.014079  0.040342
  3H   1pz        0.000909  0.005544 -0.002830 -0.004629
  3H   1px        0.014696  0.016183 -0.008960  0.013666
  3H   1py        0.007667  0.008870 -0.000280  0.009400
  4H   1s         0.001564  0.008291 -0.009543  0.008883
  4H   2s         0.149083  0.039509  0.020142  0.002645
  4H   1pz       -0.014728 -0.003443 -0.002594 -0.008625
  4H   1px       -0.017485 -0.017968  0.009832  0.000305
  4H   1py        0.013385  0.012105  0.001581 -0.002729
  5H   1s        -0.023683  0.005494  0.018175 -0.013148
  5H   2s         0.173699 -0.171816 -0.079854  0.086461
  5H   1pz       -0.000485 -0.024200  0.017317 -0.011300
  5H   1px        0.005942  0.002385 -0.012041  0.005040
  5H   1py        0.009132 -0.012017 -0.018322  0.003577
  6O   1s         0.000996  0.007663 -0.065000  0.003552
  6O   2s         0.033252  0.111909 -0.169267  0.018006
  6O   3s        -0.170955 -0.501438 -1.434976  0.007475
  6O   1pz       -0.046672  0.046030 -0.082384  0.003699
  6O   1px        0.013589 -0.017526 -0.145304  0.005386
  6O   1py       -0.012735 -0.015785 -0.488919  0.017607
  6O   2pz       -0.161289  0.130657 -0.156559  0.003093
  6O   2px        0.030493 -0.114227 -0.244656  0.003918
  6O   2py       -0.077783 -0.218012 -0.844973  0.020064
  6O   1dz2      -0.092250  0.246039  0.436311 -0.013231
  6O   1dxz      -0.111259  0.106907 -0.076541  0.003069
  6O   1dyz      -0.486848  0.458584 -0.250425  0.010031
  6O   1dx2y2     0.103179  0.129210  0.664149 -0.021188
  6O   1dxy       0.141719 -0.260126 -0.436389  0.011612
  7O   1s        -0.001291 -0.007541 -0.066458  0.001713
  7O   2s        -0.034415 -0.111058 -0.185610 -0.002712
  7O   3s         0.171984  0.493540 -1.384736  0.097114
  7O   1pz        0.044634 -0.051305  0.093429 -0.001573
  7O   1px       -0.021781  0.011374  0.130112 -0.005445
  7O   1py       -0.014296 -0.007700  0.495698 -0.017978
  7O   2pz        0.129382 -0.207394  0.132897 -0.012870
  7O   2px       -0.081884  0.000463  0.232279 -0.010747
  7O   2py       -0.096408 -0.190661  0.840187 -0.046027
  7O   1dz2      -0.189469  0.072619  0.431631 -0.017795
  7O   1dxz      -0.082755  0.125367 -0.070033  0.004179
  7O   1dyz      -0.433087  0.569528 -0.262594  0.014358
  7O   1dx2y2    -0.054491 -0.137307  0.688723 -0.029956
  7O   1dxy       0.237596 -0.096677 -0.391166  0.014978
  8O   1s         0.039725  0.034247  0.000128  0.002104
  8O   2s        -0.033470 -0.032464  0.000267 -0.040704
  8O   3s         1.465746  1.284767  0.005214  0.428929
  8O   1pz       -0.049348 -0.040130 -0.013409 -0.365214
  8O   1px        0.177364  0.155654 -0.004932 -0.113682
  8O   1py       -0.144440 -0.124306 -0.000589 -0.044348
  8O   2pz       -0.182847 -0.159186 -0.038195 -1.103145
  8O   2px        0.520301  0.456387 -0.014300 -0.331982
  8O   2py       -0.441269 -0.389364 -0.003043 -0.127479
  8O   1dz2       0.429263  0.369685  0.024466  0.664713
  8O   1dxz       0.389325  0.343801 -0.026090 -0.684410
  8O   1dyz       0.193616  0.164143  0.028546  0.805978
  8O   1dx2y2     0.224545  0.197477 -0.013997 -0.366436
  8O   1dxy      -0.512671 -0.449710  0.009944  0.216636
  9H   1s        -0.825180 -0.728508  0.031727  0.787478
  9H   2s        -0.167622 -0.141070  0.011884  0.286794
  9H   1pz        0.346869  0.304952 -0.014302 -0.334377
  9H   1px        0.453147  0.397681 -0.021050 -0.538198
  9H   1py       -0.211757 -0.185251  0.010574  0.276115
 10H   1s        -0.731701 -0.632738 -0.038569 -1.095064
 10H   2s        -0.281674 -0.251502 -0.012358 -0.562173
 10H   1pz       -0.485045 -0.421045 -0.025734 -0.803212
 10H   1px        0.057576  0.049557  0.005611  0.151715
 10H   1py       -0.206608 -0.179350 -0.014440 -0.375213



                    ********************************
                    * MULLIKEN POPULATION ANALYSIS *
                    ********************************

-----------------------
MULLIKEN ATOMIC CHARGES
-----------------------
   0 B :   -0.481144
   1 C :    0.220287
   2 H :   -0.132769
   3 H :   -0.100282
   4 H :   -0.117701
   5 H :   -0.094872
   6 O :   -0.124382
   7 O :   -0.118259
   8 O :   -0.352425
   9 H :    0.140923
  10 H :    0.160623
Sum of atomic charges:   -1.0000000

--------------------------------
MULLIKEN REDUCED ORBITAL CHARGES
--------------------------------
  0 B s       :     3.006696  s :     3.006696
      pz      :     0.832448  p :     2.447619
      px      :     0.847456
      py      :     0.767715
      dz2     :     0.005828  d :     0.026828
      dxz     :     0.006289
      dyz     :     0.003831
      dx2y2   :     0.008850
      dxy     :     0.002030
  1 C s       :     2.988210  s :     2.988210
      pz      :     0.849025  p :     2.656906
      px      :     0.857473
      py      :     0.950408
      dz2     :     0.010708  d :     0.134597
      dxz     :     0.005046
      dyz     :     0.045929
      dx2y2   :     0.029790
      dxy     :     0.043124
  2 H s       :     1.121204  s :     1.121204
      pz      :     0.003269  p :     0.011565
      px      :     0.002612
      py      :     0.005683
  3 H s       :     1.089596  s :     1.089596
      pz      :     0.002633  p :     0.010686
      px      :     0.005737
      py      :     0.002316
  4 H s       :     1.106847  s :     1.106847
      pz      :     0.003872  p :     0.010853
      px      :     0.004186
      py      :     0.002796
  5 H s       :     1.084566  s :     1.084566
      pz      :     0.004952  p :     0.010305
      px      :     0.002353
      py      :     0.003001
  6 O s       :     3.734312  s :     3.734312
      pz      :     1.544437  p :     4.368762
      px      :     1.518807
      py      :     1.305517
      dz2     :     0.002321  d :     0.021308
      dxz     :     0.000641
      dyz     :     0.005759
      dx2y2   :     0.006389
      dxy     :     0.006198
  7 O s       :     3.732335  s :     3.732335
      pz      :     1.529638  p :     4.364458
      px      :     1.529236
      py      :     1.305585
      dz2     :     0.002477  d :     0.021467
      dxz     :     0.000626
      dyz     :     0.005917
      dx2y2   :     0.006313
      dxy     :     0.006134
  8 O s       :     3.697501  s :     3.697501
      pz      :     1.284780  p :     4.646231
      px      :     1.576964
      py      :     1.784487
      dz2     :     0.001162  d :     0.008693
      dxz     :     0.002013
      dyz     :     0.002140
      dx2y2   :     0.001472
      dxy     :     0.001907
  9 H s       :     0.794764  s :     0.794764
      pz      :     0.020007  p :     0.064312
      px      :     0.024805
      py      :     0.019500
 10 H s       :     0.769245  s :     0.769245
      pz      :     0.034009  p :     0.070133
      px      :     0.014855
      py      :     0.021268


                     *******************************
                     * LOEWDIN POPULATION ANALYSIS *
                     *******************************

----------------------
LOEWDIN ATOMIC CHARGES
----------------------
   0 B :   -0.649044
   1 C :    0.105467
   2 H :   -0.069678
   3 H :   -0.066282
   4 H :   -0.073272
   5 H :   -0.071678
   6 O :   -0.063886
   7 O :   -0.058880
   8 O :   -0.201350
   9 H :    0.079156
  10 H :    0.069446

-------------------------------
LOEWDIN REDUCED ORBITAL CHARGES
-------------------------------
  0 B s       :     2.763331  s :     2.763331
      pz      :     0.939691  p :     2.789098
      px      :     0.952650
      py      :     0.896757
      dz2     :     0.021019  d :     0.096616
      dxz     :     0.021757
      dyz     :     0.015132
      dx2y2   :     0.030934
      dxy     :     0.007774
  1 C s       :     2.826578  s :     2.826578
      pz      :     0.846143  p :     2.767531
      px      :     0.859195
      py      :     1.062193
      dz2     :     0.027191  d :     0.300423
      dxz     :     0.010382
      dyz     :     0.094895
      dx2y2   :     0.074678
      dxy     :     0.093277
  2 H s       :     1.039288  s :     1.039288
      pz      :     0.008277  p :     0.030390
      px      :     0.007456
      py      :     0.014657
  3 H s       :     1.037947  s :     1.037947
      pz      :     0.007622  p :     0.028336
      px      :     0.014145
      py      :     0.006569
  4 H s       :     1.045038  s :     1.045038
      pz      :     0.010104  p :     0.028234
      px      :     0.010704
      py      :     0.007426
  5 H s       :     1.043654  s :     1.043654
      pz      :     0.012849  p :     0.028024
      px      :     0.006891
      py      :     0.008285
  6 O s       :     3.544524  s :     3.544524
      pz      :     1.522989  p :     4.483583
      px      :     1.509762
      py      :     1.450831
      dz2     :     0.004851  d :     0.035779
      dxz     :     0.000866
      dyz     :     0.007866
      dx2y2   :     0.012476
      dxy     :     0.009719
  7 O s       :     3.542854  s :     3.542854
      pz      :     1.513238  p :     4.480010
      px      :     1.515142
      py      :     1.451630
      dz2     :     0.004882  d :     0.036015
      dxz     :     0.000837
      dyz     :     0.008285
      dx2y2   :     0.012700
      dxy     :     0.009311
  8 O s       :     3.465474  s :     3.465474
      pz      :     1.339956  p :     4.719772
      px      :     1.608659
      py      :     1.771157
      dz2     :     0.002967  d :     0.016104
      dxz     :     0.004391
      dyz     :     0.004364
      dx2y2   :     0.001682
      dxy     :     0.002700
  9 H s       :     0.762244  s :     0.762244
      pz      :     0.040051  p :     0.158601
      px      :     0.068495
      py      :     0.050055
 10 H s       :     0.745820  s :     0.745820
      pz      :     0.088000  p :     0.184734
      px      :     0.038367
      py      :     0.058367


                      *****************************
                      * MAYER POPULATION ANALYSIS *
                      *****************************

  NA   - Mulliken gross atomic population
  ZA   - Total nuclear charge
  QA   - Mulliken gross atomic charge
  VA   - Mayer's total valence
  BVA  - Mayer's bonded valence
  FA   - Mayer's free valence

  ATOM       NA         ZA         QA         VA         BVA        FA
  0 B      5.4811     5.0000    -0.4811     3.9508     3.9508    -0.0000
  1 C      5.7797     6.0000     0.2203     4.3688     4.3688    -0.0000
  2 H      1.1328     1.0000    -0.1328     0.9324     0.9324     0.0000
  3 H      1.1003     1.0000    -0.1003     0.9491     0.9491    -0.0000
  4 H      1.1177     1.0000    -0.1177     0.9475     0.9475     0.0000
  5 H      1.0949     1.0000    -0.0949     0.9567     0.9567    -0.0000
  6 O      8.1244     8.0000    -0.1244     2.4458     2.4458    -0.0000
  7 O      8.1183     8.0000    -0.1183     2.4580     2.4580    -0.0000
  8 O      8.3524     8.0000    -0.3524     2.0105     2.0105     0.0000
  9 H      0.8591     1.0000     0.1409     1.0161     1.0161     0.0000
 10 H      0.8394     1.0000     0.1606     1.0845     1.0845     0.0000

  Mayer bond orders larger than 0.100000
B(  0-B ,  2-H ) :   0.8872 B(  0-B ,  3-H ) :   0.9837 B(  0-B ,  4-H ) :   0.9812 
B(  0-B ,  5-H ) :   0.9473 B(  1-C ,  6-O ) :   2.1461 B(  1-C ,  7-O ) :   2.1605 
B(  6-O ,  7-O ) :   0.2943 B(  8-O ,  9-H ) :   1.0059 B(  8-O , 10-H ) :   0.9481 


-------
TIMINGS
-------

Total SCF time: 0 days 0 hours 0 min 4 sec 

Total time                  ....       4.112 sec
Sum of individual times     ....       3.987 sec  ( 97.0%)

Fock matrix formation       ....       2.800 sec  ( 68.1%)
  Split-RI-J                ....       1.438 sec  ( 51.4% of F)
  XC integration            ....       1.323 sec  ( 47.3% of F)
    Basis function eval.    ....       0.563 sec  ( 42.6% of XC)
    Density eval.           ....       0.198 sec  ( 15.0% of XC)
    XC-Functional eval.     ....       0.261 sec  ( 19.7% of XC)
    XC-Potential eval.      ....       0.193 sec  ( 14.6% of XC)
Diagonalization             ....       0.010 sec  (  0.2%)
Density matrix formation    ....       0.003 sec  (  0.1%)
Population analysis         ....       0.002 sec  (  0.1%)
Initial guess               ....       0.142 sec  (  3.5%)
Orbital Transformation      ....       0.000 sec  (  0.0%)
Orbital Orthonormalization  ....       0.000 sec  (  0.0%)
DIIS solution               ....       0.003 sec  (  0.1%)
SOSCF solution              ....       0.008 sec  (  0.2%)
Grid generation             ....       1.019 sec  ( 24.8%)


-------------------------------------------------------------------------------
                          DFT DISPERSION CORRECTION                            
                                                                               
                              DFTD3 V3.1  Rev 1                                
                          USING Becke-Johnson damping                          
-------------------------------------------------------------------------------
The BP86 functional is recognized
Active option DFTDOPT                   ...         4   

molecular C6(AA) [au] = 997.555601 


            DFT-D V3
 parameters
 s6 scaling factor         :     1.0000 
 a1 scaling factor         :     0.3946 
 s8 scaling factor         :     3.2822 
 a2 scaling factor         :     4.8516 
 ad hoc parameters k1-k3   :    16.0000     1.3333    -4.0000 

 Edisp/kcal,au: -4.207623627606  -0.006705274347 
 E6   /kcal   :  -1.725828526 
 E8   /kcal   :  -2.481795102 
 % E8         :  58.983296071 

-------------------------   ----------------
Dispersion correction           -0.006705274
-------------------------   ----------------


-------------------------   --------------------
FINAL SINGLE POINT ENERGY      -292.071721948268
-------------------------   --------------------


                            ***************************************
                            *     ORCA property calculations      *
                            ***************************************

                                    ---------------------
                                    Active property flags
                                    ---------------------
   (+) Dipole Moment


------------------------------------------------------------------------------
                       ORCA ELECTRIC PROPERTIES CALCULATION
------------------------------------------------------------------------------

Dipole Moment Calculation                       ... on
Quadrupole Moment Calculation                   ... off
Polarizability Calculation                      ... off
GBWName                                         ... neb-0.gbw
Electron density file                           ... neb-0.scfp
The origin for moment calculation is the CENTER OF MASS  = ( 6.966259, 11.448301  7.510539)

-------------
DIPOLE MOMENT
-------------
                                X             Y             Z
Electronic contribution:      4.82045      -0.33444     -14.42878
Nuclear contribution   :     -3.13135       0.80269      11.24356
                        -----------------------------------------
Total Dipole Moment    :      1.68910       0.46825      -3.18522
                        -----------------------------------------
Magnitude (a.u.)       :      3.63565
Magnitude (Debye)      :      9.24108



--------------------
Rotational spectrum 
--------------------
 
Rotational constants in cm-1:     0.242706     0.029354     0.026485 
Rotational constants in MHz :  7276.132009   880.001774   793.990801 

 Dipole components along the rotational axes: 
x,y,z [a.u.] :    -3.157390    -1.779559     0.286329 
x,y,z [Debye]:    -8.025448    -4.523278     0.727791 

 

Timings for individual modules:

Sum of individual times         ...        5.594 sec (=   0.093 min)
GTO integral calculation        ...        0.861 sec (=   0.014 min)  15.4 %
SCF iterations                  ...        4.733 sec (=   0.079 min)  84.6 %
                             ****ORCA TERMINATED NORMALLY****
TOTAL RUN TIME: 0 days 0 hours 0 minutes 6 seconds 392 msec
