
                                 *****************
                                 * O   R   C   A *
                                 *****************

           --- An Ab Initio, DFT and Semiempirical electronic structure package ---

                  #######################################################
                  #                        -***-                        #
                  #          Department of theory and spectroscopy      #
                  #               Directorship: Frank Neese             #
                  #        Max Planck Institute fuer Kohlenforschung    #
                  #                Kaiser Wilhelm Platz 1               #
                  #                 D-45470 Muelheim/Ruhr               #
                  #                      Germany                        #
                  #                                                     #
                  #                  All rights reserved                #
                  #                        -***-                        #
                  #######################################################


                         Program Version 4.2.0 -  RELEASE  -


 With contributions from (in alphabetic order):
   Daniel Aravena         : Magnetic Suceptibility
   Michael Atanasov       : Ab Initio Ligand Field Theory (pilot matlab implementation)
   Alexander A. Auer      : GIAO ZORA, VPT2
   Ute Becker             : Parallelization
   Giovanni Bistoni       : ED, misc. LED, open-shell LED, HFLED
   Martin Brehm           : Molecular dynamics
   Dmytro Bykov           : SCF Hessian
   Vijay G. Chilkuri      : MRCI spin determinant printing, contributions to CSF-ICE
   Dipayan Datta          : RHF DLPNO-CCSD density
   Achintya Kumar Dutta   : EOM-CC, STEOM-CC
   Dmitry Ganyushin       : Spin-Orbit,Spin-Spin,Magnetic field MRCI
   Miquel Garcia          : C-PCM Hessian, Gaussian charge scheme
   Yang Guo               : DLPNO-NEVPT2, CIM, IAO-localization
   Andreas Hansen         : Spin unrestricted coupled pair/coupled cluster methods
   Benjamin Helmich-Paris : CASSCF linear response (MC-RPA)
   Lee Huntington         : MR-EOM, pCC
   Robert Izsak           : Overlap fitted RIJCOSX, COSX-SCS-MP3, EOM
   Christian Kollmar      : KDIIS, OOCD, Brueckner-CCSD(T), CCSD density
   Simone Kossmann        : Meta GGA functionals, TD-DFT gradient, OOMP2, MP2 Hessian
   Martin Krupicka        : AUTO-CI
   Lucas Lang             : DCDCAS
   Dagmar Lenk            : GEPOL surface, SMD
   Dimitrios Liakos       : Extrapolation schemes; Compound Job, initial MDCI parallelization
   Dimitrios Manganas     : Further ROCIS development; embedding schemes
   Dimitrios Pantazis     : SARC Basis sets
   Taras Petrenko         : DFT Hessian,TD-DFT gradient, ASA, ECA, R-Raman, ABS, FL, XAS/XES, NRVS
   Peter Pinski           : DLPNO-MP2, DLPNO-MP2 Gradient
   Christoph Reimann      : Effective Core Potentials
   Marius Retegan         : Local ZFS, SOC
   Christoph Riplinger    : Optimizer, TS searches, QM/MM, DLPNO-CCSD(T), (RO)-DLPNO pert. Triples
   Tobias Risthaus        : Range-separated hybrids, TD-DFT gradient, RPA, STAB
   Michael Roemelt        : Original ROCIS implementation
   Masaaki Saitow         : Open-shell DLPNO-CCSD energy and density
   Barbara Sandhoefer     : DKH picture change effects
   Avijit Sen             : IP-ROCIS
   Kantharuban Sivalingam : CASSCF convergence, NEVPT2, FIC-MRCI
   Bernardo de Souza      : ESD, SOC TD-DFT
   Georgi Stoychev        : AutoAux, RI-MP2 NMR
   Willem Van den Heuvel  : Paramagnetic NMR
   Boris Wezisla          : Elementary symmetry handling
   Frank Wennmohs         : Technical directorship


 We gratefully acknowledge several colleagues who have allowed us to
 interface, adapt or use parts of their codes:
   Stefan Grimme, W. Hujo, H. Kruse,             : VdW corrections, initial TS optimization,
                  C. Bannwarth                     DFT functionals, gCP, sTDA/sTD-DF
   Ed Valeev, F. Pavosevic, A. Kumar             : LibInt (2-el integral package), F12 methods
   Garnet Chan, S. Sharma, J. Yang, R. Olivares  : DMRG
   Ulf Ekstrom                                   : XCFun DFT Library
   Mihaly Kallay                                 : mrcc  (arbitrary order and MRCC methods)
   Andreas Klamt, Michael Diedenhofen            : otool_cosmo (COSMO solvation model)
   Jiri Pittner, Ondrej Demel                    : Mk-CCSD
   Frank Weinhold                                : gennbo (NPA and NBO analysis)
   Christopher J. Cramer and Donald G. Truhlar   : smd solvation model
   Lars Goerigk                                  : TD-DFT with DH, B97 family of functionals
   V. Asgeirsson, H. Jonsson                     : NEB implementation
   FAccTs GmbH                                   : IRC, NEB, NEB-TS, Multilevel, MM, QM/MM, CI optimization
   S Lehtola, MJT Oliveira, MAL Marques          : LibXC Library


 Your calculation uses the libint2 library for the computation of 2-el integrals
 For citations please refer to: http://libint.valeyev.net

 Your ORCA version has been built with support for libXC version: 4.2.3
 For citations please refer to: https://tddft.org/programs/libxc/

 This ORCA versions uses:
   CBLAS   interface :  Fast vector & matrix operations
   LAPACKE interface :  Fast linear algebra routines
   SCALAPACK package :  Parallel linear algebra routines


Your calculation utilizes the atom-pairwise dispersion correction
with the Becke-Johnson damping scheme (D3BJ)
Cite in your paper:
S.Grimme, S.Ehrlich, L.Goerigk, J Comput Chem, (2011), 32, 1456–1465 
S.Grimme, J.Antony, S.Ehrlich and H.Krieg, J.Chem.Phys., 132, (2010), 154104 
   

----- Orbital basis set information -----
Your calculation utilizes the basis: def2-SVP
   F. Weigend and R. Ahlrichs, Phys. Chem. Chem. Phys. 7, 3297 (2005).

----- AuxJ basis set information -----
Your calculation utilizes the auxiliary basis: def2/J
   F. Weigend, Phys. Chem. Chem. Phys. 8, 1057 (2006).

================================================================================
                                        WARNINGS
                       Please study these warnings very carefully!
================================================================================


INFO   : the flag for use of LIBINT has been found!

================================================================================
                                       INPUT FILE
================================================================================
NAME = alo3h3.h2o-orca.freq-bp86.def2svp.cpcm.inp
|  1> ! FREQ
|  2> ! BP86 D3BJ def2-SVP RI def2/J CPCM(water)
|  3> ! TightSCF Grid4 NoFinalGrid
|  4> 
|  5> %pal nprocs 8 end
|  6> %maxcore 8000
|  7> 
|  8> *xyz  0  1
|  9>   O  -1.79629905071218      0.67255303694794      0.60888713267128
| 10>   Al -1.31625104738938      1.85298117576154      1.80710426099375
| 11>   O  -0.53753259112252      3.35535956566456      0.84157568532945
| 12>   O   0.06381282683087      1.56825305406179      2.84628982541623
| 13>   O  -2.67432517453196      2.61717247360663      2.60269925043752
| 14>   H  -3.50374092052330      2.65604749429255      2.09493983642631
| 15>   H   0.01828394065398      0.75463121523362      3.37941064228519
| 16>   H  -1.07114180830772      4.17196401677699      0.95223398156496
| 17>   H  -1.07020587451760      0.27013099509578      0.09929337389267
| 18>   H   0.36987969961985      3.59536697255853      1.12867601098259
| 19> *
| 20> 
| 21>                          ****END OF INPUT****
================================================================================

                       ****************************
                       * Single Point Calculation *
                       ****************************

---------------------------------
CARTESIAN COORDINATES (ANGSTROEM)
---------------------------------
  O     -1.796299    0.672553    0.608887
  Al    -1.316251    1.852981    1.807104
  O     -0.537533    3.355360    0.841576
  O      0.063813    1.568253    2.846290
  O     -2.674325    2.617172    2.602699
  H     -3.503741    2.656047    2.094940
  H      0.018284    0.754631    3.379411
  H     -1.071142    4.171964    0.952234
  H     -1.070206    0.270131    0.099293
  H      0.369880    3.595367    1.128676

----------------------------
CARTESIAN COORDINATES (A.U.)
----------------------------
  NO LB      ZA    FRAG     MASS         X           Y           Z
   0 O     8.0000    0    15.999   -3.394513    1.270941    1.150630
   1 Al   13.0000    0    26.982   -2.487354    3.501627    3.414932
   2 O     8.0000    0    15.999   -1.015789    6.340711    1.590348
   3 O     8.0000    0    15.999    0.120589    2.963569    5.378708
   4 O     8.0000    0    15.999   -5.053742    4.945739    4.918389
   5 H     1.0000    0     1.008   -6.621111    5.019202    3.958863
   6 H     1.0000    0     1.008    0.034552    1.426046    6.386161
   7 H     1.0000    0     1.008   -2.024165    7.883869    1.799461
   8 H     1.0000    0     1.008   -2.022396    0.510474    0.187637
   9 H     1.0000    0     1.008    0.698971    6.794259    2.132889

--------------------------------
INTERNAL COORDINATES (ANGSTROEM)
--------------------------------
 O      0   0   0     0.000000000000     0.00000000     0.00000000
 Al     1   0   0     1.749165790599     0.00000000     0.00000000
 O      2   1   0     1.948278391556   106.89448531     0.00000000
 O      2   1   3     1.750872079142   120.87410190   252.01166813
 O      2   1   3     1.749664271152   113.15493281   110.84512881
 H      5   2   1     0.973273532697   116.21140033   333.46106532
 H      4   2   1     0.973792165441   115.08463161   302.63492368
 H      3   2   1     0.981746853709   111.61146989   115.45500246
 H      1   2   3     0.974084492881   115.63251036    65.01763503
 H      3   2   1     0.981543283684   114.40030879   235.06063058

---------------------------
INTERNAL COORDINATES (A.U.)
---------------------------
 O      0   0   0     0.000000000000     0.00000000     0.00000000
 Al     1   0   0     3.305444307056     0.00000000     0.00000000
 O      2   1   0     3.681712592677   106.89448531     0.00000000
 O      2   1   3     3.308668725107   120.87410190   252.01166813
 O      2   1   3     3.306386298783   113.15493281   110.84512881
 H      5   2   1     1.839220430192   116.21140033   333.46106532
 H      4   2   1     1.840200504041   115.08463161   302.63492368
 H      3   2   1     1.855232686349   111.61146989   115.45500246
 H      1   2   3     1.840752922844   115.63251036    65.01763503
 H      3   2   1     1.854847994752   114.40030879   235.06063058

---------------------
BASIS SET INFORMATION
---------------------
There are 3 groups of distinct atoms

 Group   1 Type O   : 7s4p1d contracted to 3s2p1d pattern {511/31/1}
 Group   2 Type Al  : 10s7p1d contracted to 4s3p1d pattern {5311/511/1}
 Group   3 Type H   : 4s1p contracted to 2s1p pattern {31/1}

Atom   0O    basis set group =>   1
Atom   1Al   basis set group =>   2
Atom   2O    basis set group =>   1
Atom   3O    basis set group =>   1
Atom   4O    basis set group =>   1
Atom   5H    basis set group =>   3
Atom   6H    basis set group =>   3
Atom   7H    basis set group =>   3
Atom   8H    basis set group =>   3
Atom   9H    basis set group =>   3
---------------------------------
AUXILIARY/J BASIS SET INFORMATION
---------------------------------
There are 3 groups of distinct atoms

 Group   1 Type O   : 12s5p4d2f1g contracted to 6s4p3d1f1g pattern {711111/2111/211/2/1}
 Group   2 Type Al  : 14s5p5d2f1g contracted to 8s4p3d1f1g pattern {71111111/2111/311/2/1}
 Group   3 Type H   : 5s2p1d contracted to 3s1p1d pattern {311/2/1}

Atom   0O    basis set group =>   1
Atom   1Al   basis set group =>   2
Atom   2O    basis set group =>   1
Atom   3O    basis set group =>   1
Atom   4O    basis set group =>   1
Atom   5H    basis set group =>   3
Atom   6H    basis set group =>   3
Atom   7H    basis set group =>   3
Atom   8H    basis set group =>   3
Atom   9H    basis set group =>   3


           ************************************************************
           *        Program running with 8 parallel MPI-processes     *
           *              working on a common directory               *
           ************************************************************
------------------------------------------------------------------------------
                           ORCA GTO INTEGRAL CALCULATION
                           -- RI-GTO INTEGRALS CHOSEN --
------------------------------------------------------------------------------

                         BASIS SET STATISTICS AND STARTUP INFO

Gaussian basis set:
 # of primitive gaussian shells          ...   91
 # of primitive gaussian functions       ...  167
 # of contracted shells                  ...   47
 # of contracted basis functions         ...   99
 Highest angular momentum                ...    2
 Maximum contraction depth               ...    5
Auxiliary gaussian basis set:
 # of primitive gaussian shells          ...  163
 # of primitive gaussian functions       ...  437
 # of contracted shells                  ...  102
 # of contracted aux-basis functions     ...  302
 Highest angular momentum                ...    4
 Maximum contraction depth               ...    7
Ratio of auxiliary to basis functions    ...  3.05
Integral package used                  ... LIBINT
 One Electron integrals                  ... done
 Ordering auxiliary basis shells         ... done
 Integral threshhold             Thresh  ...  2.500e-11
 Primitive cut-off               TCut    ...  2.500e-12
 Pre-screening matrix                    ... done
 Shell pair data                         ... 
 Ordering of the shell pairs             ... done (   0.000 sec) 1100 of 1128 pairs
 Determination of significant pairs      ... done (   0.000 sec)
 Creation of shell pair data             ... done (   0.000 sec)
 Storage of shell pair data              ... done (   0.000 sec)
 Shell pair data done in (   0.001 sec)
 Computing two index integrals           ... done
 Cholesky decomposition of the V-matrix  ... done


Timings:
 Total evaluation time                   ...   0.127 sec (  0.002 min)
 One electron matrix time                ...   0.007 sec (  0.000 min) =  5.7%
 Schwartz matrix evaluation time         ...   0.099 sec (  0.002 min) = 77.8%
 Two index repulsion integral time       ...   0.002 sec (  0.000 min) =  1.4%
 Cholesky decomposition of V             ...   0.002 sec (  0.000 min) =  1.3%
 Three index repulsion integral time     ...   0.000 sec (  0.000 min) =  0.0%



           ************************************************************
           *        Program running with 8 parallel MPI-processes     *
           *              working on a common directory               *
           ************************************************************
-------------------------------------------------------------------------------
                                 ORCA SCF
-------------------------------------------------------------------------------

------------
SCF SETTINGS
------------
Hamiltonian:
 Density Functional     Method          .... DFT(GTOs)
 Exchange Functional    Exchange        .... B88
   X-Alpha parameter    XAlpha          ....  0.666667
   Becke's b parameter  XBeta           ....  0.004200
 Correlation Functional Correlation     .... P86
 LDA part of GGA corr.  LDAOpt          .... PW91-LDA
 Gradients option       PostSCFGGA      .... off
   Density functional embedding theory  .... OFF
 RI-approximation to the Coulomb term is turned on
   Number of auxiliary basis functions  .... 302


General Settings:
 Integral files         IntName         .... alo3h3.h2o-orca.freq-bp86.def2svp.cpcm
 Hartree-Fock type      HFTyp           .... RHF
 Total Charge           Charge          ....    0
 Multiplicity           Mult            ....    1
 Number of Electrons    NEL             ....   50
 Basis Dimension        Dim             ....   99
 Nuclear Repulsion      ENuc            ....    249.0326328107 Eh

Convergence Acceleration:
 DIIS                   CNVDIIS         .... on
   Start iteration      DIISMaxIt       ....    12
   Startup error        DIISStart       ....  0.200000
   # of expansion vecs  DIISMaxEq       ....     5
   Bias factor          DIISBfac        ....   1.050
   Max. coefficient     DIISMaxC        ....  10.000
 Newton-Raphson         CNVNR           .... off
 SOSCF                  CNVSOSCF        .... on
   Start iteration      SOSCFMaxIt      ....   150
   Startup grad/error   SOSCFStart      ....  0.003300
 Level Shifting         CNVShift        .... on
   Level shift para.    LevelShift      ....    0.2500
   Turn off err/grad.   ShiftErr        ....    0.0010
 Zerner damping         CNVZerner       .... off
 Static damping         CNVDamp         .... on
   Fraction old density DampFac         ....    0.7000
   Max. Damping (<1)    DampMax         ....    0.9800
   Min. Damping (>=0)   DampMin         ....    0.0000
   Turn off err/grad.   DampErr         ....    0.1000
 Fernandez-Rico         CNVRico         .... off

SCF Procedure:
 Maximum # iterations   MaxIter         ....   125
 SCF integral mode      SCFMode         .... Direct
   Integral package                     .... LIBINT
 Reset frequency        DirectResetFreq ....    20
 Integral Threshold     Thresh          ....  2.500e-11 Eh
 Primitive CutOff       TCut            ....  2.500e-12 Eh

Convergence Tolerance:
 Convergence Check Mode ConvCheckMode   .... Total+1el-Energy
 Convergence forced     ConvForced      .... 0
 Energy Change          TolE            ....  1.000e-08 Eh
 1-El. energy change                    ....  1.000e-05 Eh
 Orbital Gradient       TolG            ....  1.000e-05
 Orbital Rotation angle TolX            ....  1.000e-05
 DIIS Error             TolErr          ....  5.000e-07


Diagonalization of the overlap matrix:
Smallest eigenvalue                        ... 2.650e-02
Time for diagonalization                   ...    0.002 sec
Threshold for overlap eigenvalues          ... 1.000e-08
Number of eigenvalues below threshold      ... 0
Time for construction of square roots      ...    0.001 sec
Total time needed                          ...    0.003 sec

-------------------
DFT GRID GENERATION
-------------------

General Integration Accuracy     IntAcc      ...  4.670
Radial Grid Type                 RadialGrid  ... Gauss-Chebyshev
Angular Grid (max. acc.)         AngularGrid ... Lebedev-302
Angular grid pruning method      GridPruning ... 3 (G Style)
Weight generation scheme         WeightScheme... Becke
Basis function cutoff            BFCut       ...    1.0000e-11
Integration weight cutoff        WCut        ...    1.0000e-14
Grids for H and He will be reduced by one unit

# of grid points (after initial pruning)     ...  48664 (   0.0 sec)
# of grid points (after weights+screening)   ...  46374 (   0.0 sec)
nearest neighbour list constructed           ...    0.0 sec
Grid point re-assignment to atoms done       ...    0.0 sec
Grid point division into batches done        ...    0.2 sec
Reduced shell lists constructed in    0.2 sec

Total number of grid points                  ...    46374
Total number of batches                      ...      730
Average number of points per batch           ...       63
Average number of grid points per atom       ...     4637
Average number of shells per batch           ...    34.59 (73.60%)
Average number of basis functions per batch  ...    71.39 (72.11%)
Average number of large shells per batch     ...    26.16 (75.63%)
Average number of large basis fcns per batch ...    52.94 (74.15%)
Maximum spatial batch extension              ...  15.86, 15.80, 16.29 au
Average spatial batch extension              ...   0.26,  0.27,  0.26 au

Time for grid setup =    0.215 sec

------------------------------
INITIAL GUESS: MODEL POTENTIAL
------------------------------
Loading Hartree-Fock densities                     ... done
Calculating cut-offs                               ... done
Setting up the integral package                    ... done
Initializing the effective Hamiltonian             ... done
Starting the Coulomb interaction                   ... done (   0.0 sec)
Reading the grid                                   ... done
Mapping shells                                     ... done
Starting the XC term evaluation                    ... done (   0.0 sec)
  promolecular density results
     # of electrons  =     49.997539553
     EX              =    -52.410514927
     EC              =     -1.894864664
     EX+EC           =    -54.305379591
Transforming the Hamiltonian                       ... done (   0.0 sec)
Diagonalizing the Hamiltonian                      ... done (   0.0 sec)
Back transforming the eigenvectors                 ... done (   0.0 sec)
Now organizing SCF variables                       ... done
                      ------------------
                      INITIAL GUESS DONE (   0.3 sec)
                      ------------------

--------------------
CPCM SOLVATION MODEL
--------------------
CPCM parameters:
  Epsilon                                         ...      80.4000
  Refrac                                          ...       1.3300
  Rsolv                                           ...       1.3000
  Surface type                                    ...    GEPOL SES
  Epsilon function type                           ...         CPCM
Radii:
 Radius for O  used is    3.2503 Bohr (=   1.7200 Ang.)
 Radius for Al used is    4.0686 Bohr (=   2.1530 Ang.)
 Radius for H  used is    2.4566 Bohr (=   1.3000 Ang.)
Calculating surface                               ...        done! (  0.0s)
GEPOL surface points                              ...          469
GEPOL Volume                                      ...     661.0734
GEPOL Surface-area                                ...     430.2428
Calculating surface distance matrix               ...        done! (  0.0s)
Performing Cholesky decomposition & store         ...        done! (  0.0s)
Overall time for CPCM initialization              ...                 0.0s
--------------
SCF ITERATIONS
--------------
ITER       Energy         Delta-E        Max-DP      RMS-DP      [F,P]     Damp
               ***  Starting incremental Fock matrix formation  ***
  0   -545.8972370965   0.000000000000 0.11014620  0.00525177  0.3355201 0.7000
  1   -546.0934077194  -0.196170622885 0.05999775  0.00286942  0.1140049 0.7000
                               ***Turning on DIIS***
  2   -546.1451555903  -0.051747870984 0.04324456  0.00274370  0.0163100 0.0000
  3   -546.2567618011  -0.111606210794 0.04448166  0.00157962  0.0641036 0.0000
  4   -546.2718882251  -0.015126423952 0.01004352  0.00045405  0.0155524 0.0000
                      *** Initiating the SOSCF procedure ***
                           *** Shutting down DIIS ***
                      *** Re-Reading the Fockian *** 
                      *** Removing any level shift *** 
ITER      Energy       Delta-E        Grad      Rot      Max-DP    RMS-DP
  5   -546.27259651  -0.0007082892  0.000816  0.000816  0.003771  0.000160
               *** Restarting incremental Fock matrix formation ***
  6   -546.27265587  -0.0000593581  0.000522  0.000908  0.001664  0.000087
  7   -546.27265891  -0.0000030384  0.000897  0.000489  0.001281  0.000042
  8   -546.27266311  -0.0000042012  0.000195  0.000359  0.000622  0.000028
  9   -546.27266382  -0.0000007042  0.000047  0.000059  0.000172  0.000007
 10   -546.27266380   0.0000000122  0.000063  0.000033  0.000112  0.000004
 11   -546.27266388  -0.0000000769  0.000005  0.000016  0.000025  0.000001
 12   -546.27266389  -0.0000000049  0.000003  0.000004  0.000013  0.000000
 13   -546.27266389  -0.0000000026  0.000003  0.000004  0.000008  0.000000
                  ***Gradient check signals convergence***
              ***Rediagonalizing the Fockian in SOSCF/NRSCF***

               *****************************************************
               *                     SUCCESS                       *
               *           SCF CONVERGED AFTER  14 CYCLES          *
               *****************************************************


----------------
TOTAL SCF ENERGY
----------------

Total Energy       :         -546.27266388 Eh          -14864.83490 eV

Components:
Nuclear Repulsion  :          249.03263281 Eh            6776.52245 eV
Electronic Energy  :         -795.30529670 Eh          -21641.35735 eV
One Electron Energy:        -1252.64959701 Eh          -34086.32845 eV
Two Electron Energy:          457.34430031 Eh           12444.97110 eV
CPCM Dielectric    :           -0.04048789 Eh              -1.10173 eV

Virial components:
Potential Energy   :        -1088.95929647 Eh          -29632.08892 eV
Kinetic Energy     :          542.68663258 Eh           14767.25403 eV
Virial Ratio       :            2.00660792


DFT components:
N(Alpha)           :       24.999996458977 electrons
N(Beta)            :       24.999996458977 electrons
N(Total)           :       49.999992917954 electrons
E(X)               :      -53.125180800280 Eh       
E(C)               :       -1.927331183320 Eh       
E(XC)              :      -55.052511983600 Eh       
DFET-embed. en.    :        0.000000000000 Eh       
CPCM Solvation Model Properties:
Surface-charge          :           -0.01428976
Charge-correction       :            0.00003005 Eh               0.00082 eV
Free-energy (cav+disp)  :            0.00340381 Eh               0.09262 eV
Corrected G(solv)       :         -546.26923003 Eh          -14864.74146 eV

---------------
SCF CONVERGENCE
---------------

  Last Energy change         ...    3.6741e-09  Tolerance :   1.0000e-08
  Last MAX-Density change    ...    2.8462e-06  Tolerance :   1.0000e-07
  Last RMS-Density change    ...    1.1072e-07  Tolerance :   5.0000e-09
  Last Orbital Gradient      ...    7.3784e-07  Tolerance :   1.0000e-05
  Last Orbital Rotation      ...    1.1756e-06  Tolerance :   1.0000e-05

             **** THE GBW FILE WAS UPDATED (alo3h3.h2o-orca.freq-bp86.def2svp.cpcm.gbw) ****
             **** DENSITY FILE WAS UPDATED (alo3h3.h2o-orca.freq-bp86.def2svp.cpcm.scfp) ****
             **** ENERGY FILE WAS UPDATED (alo3h3.h2o-orca.freq-bp86.def2svp.cpcm.en.tmp) ****
             **** THE GBW FILE WAS UPDATED (alo3h3.h2o-orca.freq-bp86.def2svp.cpcm.gbw) ****
             **** DENSITY FILE WAS UPDATED (alo3h3.h2o-orca.freq-bp86.def2svp.cpcm.scfp) ****
----------------
ORBITAL ENERGIES
----------------

  NO   OCC          E(Eh)            E(eV) 
   0   2.0000     -55.399078     -1507.4855 
   1   2.0000     -18.847892      -512.8772 
   2   2.0000     -18.735168      -509.8099 
   3   2.0000     -18.734960      -509.8042 
   4   2.0000     -18.732607      -509.7402 
   5   2.0000      -3.911732      -106.4436 
   6   2.0000      -2.520453       -68.5850 
   7   2.0000      -2.516501       -68.4775 
   8   2.0000      -2.516010       -68.4641 
   9   2.0000      -0.973309       -26.4851 
  10   2.0000      -0.844965       -22.9927 
  11   2.0000      -0.834606       -22.7108 
  12   2.0000      -0.832809       -22.6619 
  13   2.0000      -0.531089       -14.4517 
  14   2.0000      -0.456892       -12.4327 
  15   2.0000      -0.410069       -11.1586 
  16   2.0000      -0.400274       -10.8920 
  17   2.0000      -0.387801       -10.5526 
  18   2.0000      -0.335575        -9.1315 
  19   2.0000      -0.284614        -7.7447 
  20   2.0000      -0.262160        -7.1337 
  21   2.0000      -0.260369        -7.0850 
  22   2.0000      -0.240989        -6.5576 
  23   2.0000      -0.235512        -6.4086 
  24   2.0000      -0.228623        -6.2211 
  25   0.0000      -0.006473        -0.1761 
  26   0.0000       0.043697         1.1891 
  27   0.0000       0.070815         1.9270 
  28   0.0000       0.076419         2.0795 
  29   0.0000       0.100178         2.7260 
  30   0.0000       0.128548         3.4980 
  31   0.0000       0.153487         4.1766 
  32   0.0000       0.162398         4.4191 
  33   0.0000       0.179216         4.8767 
  34   0.0000       0.220724         6.0062 
  35   0.0000       0.334467         9.1013 
  36   0.0000       0.365466         9.9448 
  37   0.0000       0.389701        10.6043 
  38   0.0000       0.409084        11.1317 
  39   0.0000       0.469345        12.7715 
  40   0.0000       0.552758        15.0413 
  41   0.0000       0.579757        15.7760 
  42   0.0000       0.604489        16.4490 
  43   0.0000       0.625728        17.0269 
  44   0.0000       0.652880        17.7658 
  45   0.0000       0.712294        19.3825 
  46   0.0000       0.773912        21.0592 
  47   0.0000       0.781875        21.2759 
  48   0.0000       0.860661        23.4198 
  49   0.0000       0.918592        24.9962 
  50   0.0000       0.929558        25.2946 
  51   0.0000       0.937488        25.5104 
  52   0.0000       0.946983        25.7687 
  53   0.0000       0.961921        26.1752 
  54   0.0000       1.005455        27.3598 
  55   0.0000       1.013445        27.5773 
  56   0.0000       1.042307        28.3626 
  57   0.0000       1.075201        29.2577 
  58   0.0000       1.126105        30.6429 
  59   0.0000       1.136715        30.9316 
  60   0.0000       1.207794        32.8658 
  61   0.0000       1.235171        33.6107 
  62   0.0000       1.270937        34.5840 
  63   0.0000       1.317789        35.8589 
  64   0.0000       1.356537        36.9133 
  65   0.0000       1.415981        38.5308 
  66   0.0000       1.432358        38.9764 
  67   0.0000       1.447017        39.3753 
  68   0.0000       1.495651        40.6987 
  69   0.0000       1.618047        44.0293 
  70   0.0000       1.658440        45.1285 
  71   0.0000       1.686362        45.8882 
  72   0.0000       1.707352        46.4594 
  73   0.0000       1.819039        49.4986 
  74   0.0000       2.067858        56.2693 
  75   0.0000       2.131061        57.9891 
  76   0.0000       2.154864        58.6368 
  77   0.0000       2.156670        58.6860 
  78   0.0000       2.166081        58.9421 
  79   0.0000       2.599421        70.7338 
  80   0.0000       2.637762        71.7772 
  81   0.0000       2.706405        73.6450 
  82   0.0000       2.742616        74.6304 
  83   0.0000       2.817676        76.6729 
  84   0.0000       2.822250        76.7973 
  85   0.0000       2.829926        77.0062 
  86   0.0000       2.853171        77.6387 
  87   0.0000       2.892581        78.7111 
  88   0.0000       2.899680        78.9043 
  89   0.0000       2.904294        79.0299 
  90   0.0000       2.963555        80.6424 
  91   0.0000       2.989049        81.3361 
  92   0.0000       3.060800        83.2886 
  93   0.0000       3.105023        84.4920 
  94   0.0000       3.334467        90.7354 
  95   0.0000       3.602817        98.0376 
  96   0.0000       3.625316        98.6499 
  97   0.0000       3.630232        98.7836 
  98   0.0000       3.668963        99.8376 

                    ********************************
                    * MULLIKEN POPULATION ANALYSIS *
                    ********************************

-----------------------
MULLIKEN ATOMIC CHARGES
-----------------------
   0 O :   -0.512945
   1 Al:    0.636344
   2 O :   -0.227000
   3 O :   -0.519363
   4 O :   -0.522379
   5 H :    0.204163
   6 H :    0.209114
   7 H :    0.259108
   8 H :    0.207873
   9 H :    0.265085
Sum of atomic charges:    0.0000000

--------------------------------
MULLIKEN REDUCED ORBITAL CHARGES
--------------------------------
  0 O s       :     3.723589  s :     3.723589
      pz      :     1.589177  p :     4.783810
      px      :     1.540458
      py      :     1.654175
      dz2     :     0.000344  d :     0.005546
      dxz     :     0.001958
      dyz     :     0.000529
      dx2y2   :     0.001260
      dxy     :     0.001454
  1 Als       :     4.593176  s :     4.593176
      pz      :     2.439835  p :     7.328784
      px      :     2.431116
      py      :     2.457833
      dz2     :     0.077167  d :     0.441696
      dxz     :     0.104069
      dyz     :     0.085396
      dx2y2   :     0.085638
      dxy     :     0.089426
  2 O s       :     3.644227  s :     3.644227
      pz      :     1.850239  p :     4.576046
      px      :     1.288226
      py      :     1.437582
      dz2     :     0.001022  d :     0.006726
      dxz     :     0.001318
      dyz     :     0.000982
      dx2y2   :     0.001392
      dxy     :     0.002012
  3 O s       :     3.724231  s :     3.724231
      pz      :     1.596054  p :     4.789609
      px      :     1.730268
      py      :     1.463286
      dz2     :     0.000275  d :     0.005523
      dxz     :     0.000797
      dyz     :     0.001761
      dx2y2   :     0.001962
      dxy     :     0.000728
  4 O s       :     3.723660  s :     3.723660
      pz      :     1.669026  p :     4.793220
      px      :     1.330356
      py      :     1.793837
      dz2     :     0.000739  d :     0.005500
      dxz     :     0.002775
      dyz     :     0.000803
      dx2y2   :     0.000940
      dxy     :     0.000243
  5 H s       :     0.729623  s :     0.729623
      pz      :     0.021558  p :     0.066214
      px      :     0.027438
      py      :     0.017218
  6 H s       :     0.724357  s :     0.724357
      pz      :     0.021423  p :     0.066529
      px      :     0.017463
      py      :     0.027643
  7 H s       :     0.674887  s :     0.674887
      pz      :     0.015657  p :     0.066005
      px      :     0.022024
      py      :     0.028324
  8 H s       :     0.725807  s :     0.725807
      pz      :     0.020997  p :     0.066320
      px      :     0.025786
      py      :     0.019537
  9 H s       :     0.669029  s :     0.669029
      pz      :     0.017241  p :     0.065886
      px      :     0.034876
      py      :     0.013768


                     *******************************
                     * LOEWDIN POPULATION ANALYSIS *
                     *******************************

----------------------
LOEWDIN ATOMIC CHARGES
----------------------
   0 O :   -0.295512
   1 Al:    0.229182
   2 O :    0.073713
   3 O :   -0.298490
   4 O :   -0.299043
   5 H :    0.091269
   6 H :    0.092503
   7 H :    0.155125
   8 H :    0.092196
   9 H :    0.159056

-------------------------------
LOEWDIN REDUCED ORBITAL CHARGES
-------------------------------
  0 O s       :     3.470731  s :     3.470731
      pz      :     1.594341  p :     4.815159
      px      :     1.577272
      py      :     1.643547
      dz2     :     0.000433  d :     0.009621
      dxz     :     0.003825
      dyz     :     0.001096
      dx2y2   :     0.001794
      dxy     :     0.002473
  1 Als       :     4.539925  s :     4.539925
      pz      :     2.492429  p :     7.452280
      px      :     2.483114
      py      :     2.476737
      dz2     :     0.121030  d :     0.778612
      dxz     :     0.194111
      dyz     :     0.161482
      dx2y2   :     0.145347
      dxy     :     0.156642
  2 O s       :     3.352825  s :     3.352825
      pz      :     1.789100  p :     4.559185
      px      :     1.317864
      py      :     1.452220
      dz2     :     0.001801  d :     0.014276
      dxz     :     0.002294
      dyz     :     0.000990
      dx2y2   :     0.003871
      dxy     :     0.005321
  3 O s       :     3.470147  s :     3.470147
      pz      :     1.600961  p :     4.818802
      px      :     1.712432
      py      :     1.505409
      dz2     :     0.000301  d :     0.009541
      dxz     :     0.001024
      dyz     :     0.004077
      dx2y2   :     0.003602
      dxy     :     0.000537
  4 O s       :     3.468269  s :     3.468269
      pz      :     1.674601  p :     4.821205
      px      :     1.391616
      py      :     1.754988
      dz2     :     0.000329  d :     0.009570
      dxz     :     0.005951
      dyz     :     0.000562
      dx2y2   :     0.002358
      dxy     :     0.000370
  5 H s       :     0.726099  s :     0.726099
      pz      :     0.060370  p :     0.182632
      px      :     0.075181
      py      :     0.047081
  6 H s       :     0.725081  s :     0.725081
      pz      :     0.058568  p :     0.182415
      px      :     0.045349
      py      :     0.078498
  7 H s       :     0.677867  s :     0.677867
      pz      :     0.044930  p :     0.167008
      px      :     0.044208
      py      :     0.077870
  8 H s       :     0.725430  s :     0.725430
      pz      :     0.056604  p :     0.182374
      px      :     0.073428
      py      :     0.052343
  9 H s       :     0.674358  s :     0.674358
      pz      :     0.049708  p :     0.166585
      px      :     0.082803
      py      :     0.034075


                      *****************************
                      * MAYER POPULATION ANALYSIS *
                      *****************************

  NA   - Mulliken gross atomic population
  ZA   - Total nuclear charge
  QA   - Mulliken gross atomic charge
  VA   - Mayer's total valence
  BVA  - Mayer's bonded valence
  FA   - Mayer's free valence

  ATOM       NA         ZA         QA         VA         BVA        FA
  0 O      8.5129     8.0000    -0.5129     2.0684     2.0684     0.0000
  1 Al    12.3637    13.0000     0.6363     3.8149     3.8149     0.0000
  2 O      8.2270     8.0000    -0.2270     2.3524     2.3524     0.0000
  3 O      8.5194     8.0000    -0.5194     2.0637     2.0637     0.0000
  4 O      8.5224     8.0000    -0.5224     2.0523     2.0523    -0.0000
  5 H      0.7958     1.0000     0.2042     0.9781     0.9781     0.0000
  6 H      0.7909     1.0000     0.2091     0.9713     0.9713     0.0000
  7 H      0.7409     1.0000     0.2591     0.9651     0.9651     0.0000
  8 H      0.7921     1.0000     0.2079     0.9756     0.9756     0.0000
  9 H      0.7349     1.0000     0.2651     0.9555     0.9555     0.0000

  Mayer bond orders larger than 0.100000
B(  0-O ,  1-Al) :   1.1033 B(  0-O ,  8-H ) :   0.9554 B(  1-Al,  2-O ) :   0.4792 
B(  1-Al,  3-O ) :   1.0865 B(  1-Al,  4-O ) :   1.0563 B(  2-O ,  7-H ) :   0.9300 
B(  2-O ,  9-H ) :   0.9309 B(  3-O ,  6-H ) :   0.9549 B(  4-O ,  5-H ) :   0.9557 


-------
TIMINGS
-------

Total SCF time: 0 days 0 hours 0 min 4 sec 

Total time                  ....       4.293 sec
Sum of individual times     ....       4.171 sec  ( 97.2%)

Fock matrix formation       ....       3.816 sec  ( 88.9%)
  Split-RI-J                ....       1.077 sec  ( 28.2% of F)
  XC integration            ....       0.597 sec  ( 15.6% of F)
    Basis function eval.    ....       0.241 sec  ( 40.4% of XC)
    Density eval.           ....       0.091 sec  ( 15.2% of XC)
    XC-Functional eval.     ....       0.100 sec  ( 16.7% of XC)
    XC-Potential eval.      ....       0.105 sec  ( 17.6% of XC)
Diagonalization             ....       0.008 sec  (  0.2%)
Density matrix formation    ....       0.003 sec  (  0.1%)
Population analysis         ....       0.002 sec  (  0.0%)
Initial guess               ....       0.118 sec  (  2.7%)
Orbital Transformation      ....       0.000 sec  (  0.0%)
Orbital Orthonormalization  ....       0.000 sec  (  0.0%)
DIIS solution               ....       0.002 sec  (  0.1%)
SOSCF solution              ....       0.007 sec  (  0.2%)
Grid generation             ....       0.215 sec  (  5.0%)


-------------------------------------------------------------------------------
                          DFT DISPERSION CORRECTION                            
                                                                               
                              DFTD3 V3.1  Rev 1                                
                          USING Becke-Johnson damping                          
-------------------------------------------------------------------------------
The BP86 functional is recognized
Active option DFTDOPT                   ...         4   

molecular C6(AA) [au] = 1110.379778 


            DFT-D V3
 parameters
 s6 scaling factor         :     1.0000 
 a1 scaling factor         :     0.3946 
 s8 scaling factor         :     3.2822 
 a2 scaling factor         :     4.8516 
 ad hoc parameters k1-k3   :    16.0000     1.3333    -4.0000 

 Edisp/kcal,au: -5.918727581641  -0.009432091777 
 E6   /kcal   :  -2.071946601 
 E8   /kcal   :  -3.846780980 
 % E8         :  64.993377839 

-------------------------   ----------------
Dispersion correction           -0.009432092
-------------------------   ----------------


-------------------------   --------------------
FINAL SINGLE POINT ENERGY      -546.282095976562
-------------------------   --------------------


                            ***************************************
                            *     ORCA property calculations      *
                            ***************************************

                                    ---------------------
                                    Active property flags
                                    ---------------------
   (+) Dipole Moment


------------------------------------------------------------------------------
                       ORCA ELECTRIC PROPERTIES CALCULATION
------------------------------------------------------------------------------

Dipole Moment Calculation                       ... on
Quadrupole Moment Calculation                   ... off
Polarizability Calculation                      ... off
GBWName                                         ... alo3h3.h2o-orca.freq-bp86.def2svp.cpcm.gbw
Electron density file                           ... alo3h3.h2o-orca.freq-bp86.def2svp.cpcm.scfp
The origin for moment calculation is the CENTER OF MASS  = (-2.360113,  3.797284  3.283953)

-------------
DIPOLE MOMENT
-------------
                                X             Y             Z
Electronic contribution:      0.03158      -0.06100      -0.05671
Nuclear contribution   :      0.98827       1.45846      -1.03392
                        -----------------------------------------
Total Dipole Moment    :      1.01984       1.39746      -1.09063
                        -----------------------------------------
Magnitude (a.u.)       :      2.04510
Magnitude (Debye)      :      5.19823



--------------------
Rotational spectrum 
--------------------
 
Rotational constants in cm-1:     0.114509     0.107734     0.103036 
Rotational constants in MHz :  3432.899425  3229.790470  3088.927234 

 Dipole components along the rotational axes: 
x,y,z [a.u.] :     1.268237    -0.279225    -1.579888 
x,y,z [Debye]:     3.223603    -0.709734    -4.015756 

 


           ************************************************************
           *        Program running with 8 parallel MPI-processes     *
           *              working on a common directory               *
           ************************************************************

-------------------------------------------------------------------------------
                               ORCA SCF HESSIAN
-------------------------------------------------------------------------------

Hessian of the Kohn-Sham DFT energy:
Kohn-Sham wavefunction type                      ... RKS
Hartree-Fock exchange scaling                    ...    0.000
Number of operators                              ...    1
Number of atoms                                  ...   10
Basis set dimensions                             ...   99
Integral neglect threshold                       ... 2.5e-11
Integral primitive cutoff                        ... 2.5e-12

Setting up DFT Hessian calculations              ... 
Electron density on the grid                     ... found on disk
Building xc-kernel on the grid                   ... done   (      0.0 sec)
                                                     done   (      0.0 sec)

Nuclear repulsion Hessian                        ... done   (      0.0 sec)

----------------------------------------------
Forming right-hand sides of CP-SCF equations     ...
----------------------------------------------
One electron integral derivatives                ... done   (      3.0 sec)
Transforming the overlap derivative matrices     ... done   (      0.0 sec)
Adding tr(S(x)F(y) C-PCM term to the hessian     ... done   (      0.3 sec)
Making the Q(x) pseudodensities                  ... done   (      0.0 sec)
Adding the E*S(x)*S(y) terms to the Hessian      ... done   (      0.0 sec)
Calculating energy weighted overlap derivatives  ... done   (      0.0 sec)
Two electron integral derivatives (RI)           ... done   (      0.3 sec)
Exchange-correlation integral derivatives        ... done   (      1.1 sec)
tr(F(y)Q(x)) contribution to the Hessian         ... done   (      0.0 sec)
Response fock operator R(S(x)) (RI)              ... done   (      0.4 sec)
XC Response fock operator R(S(x))                ... done   (      0.4 sec)
tr(F(y)S(x)) contribution to the Hessian         ... done   (      0.0 sec)
Transforming and finalizing RHSs                 ... done   (      0.0 sec)

----------------------------------------------
Solving the CP-SCF equations (RI)                ...
----------------------------------------------
     CP-SCF ITERATION   0: 
     CP-SCF ITERATION   1:      0.000713522105
     CP-SCF ITERATION   2:      0.000073806972
     CP-SCF ITERATION   3:      0.000002260131
     CP-SCF ITERATION   4:      0.000000252238
     CP-SCF ITERATION   5:      0.000000012733
     CP-SCF ITERATION   6:      0.000000009482

                                                 ... done   (      8.8 sec)
Forming perturbed density Hessian contributions  ... done   (      0.0 sec)
Making the perturbed densities                   ... done   (      0.0 sec)
Calculating [Q*(d^2 A/dXdY)*Q  ] C-PCM term      ... done   (      0.0 sec)
Calculating [d^2(V_N)/(dXdY)*Q ] C-PCM term      ... done   (      0.0 sec)
Calculating [d^2(V_el)/(dXdY)*Q] C-PCM term      ... done   (      0.1 sec)
Calculating C-PCM term that depends on dQ/dX     ... done   (      0.0 sec)
2nd integral derivative contribs (RI)            ... done   (      0.5 sec)
Exchange-correlation Hessian                     ... done   (      1.5 sec)
Dispersion correction in the Hessian             ... done   (      0.3 sec)
Dipol derivatives                                ... done   (      0.1 sec)

Total SCF Hessian time: 0 days 0 hours 0 min 17 sec 

Writing the Hessian file to the disk             ... done


Maximum memory used throughout the entire calculation: 133.9 MB

-----------------------
VIBRATIONAL FREQUENCIES
-----------------------

Scaling factor for frequencies =  1.000000000  (already applied!)

   0:         0.00 cm**-1
   1:         0.00 cm**-1
   2:         0.00 cm**-1
   3:         0.00 cm**-1
   4:         0.00 cm**-1
   5:         0.00 cm**-1
   6:      -219.64 cm**-1 ***imaginary mode***
   7:       108.77 cm**-1
   8:       138.99 cm**-1
   9:       156.52 cm**-1
  10:       187.78 cm**-1
  11:       195.62 cm**-1
  12:       227.57 cm**-1
  13:       229.53 cm**-1
  14:       257.70 cm**-1
  15:       406.08 cm**-1
  16:       465.72 cm**-1
  17:       592.40 cm**-1
  18:       630.90 cm**-1
  19:       651.08 cm**-1
  20:       663.26 cm**-1
  21:       685.28 cm**-1
  22:       822.72 cm**-1
  23:       834.18 cm**-1
  24:      1520.51 cm**-1
  25:      3628.61 cm**-1
  26:      3699.37 cm**-1
  27:      3741.35 cm**-1
  28:      3747.94 cm**-1
  29:      3751.71 cm**-1


------------
NORMAL MODES
------------

These modes are the Cartesian displacements weighted by the diagonal matrix
M(i,i)=1/sqrt(m[i]) where m[i] is the mass of the displaced atom
Thus, these vectors are normalized but *not* orthogonal

                  0          1          2          3          4          5    
      0       0.000000   0.000000   0.000000   0.000000   0.000000   0.000000
      1       0.000000   0.000000   0.000000   0.000000   0.000000   0.000000
      2       0.000000   0.000000   0.000000   0.000000   0.000000   0.000000
      3       0.000000   0.000000   0.000000   0.000000   0.000000   0.000000
      4       0.000000   0.000000   0.000000   0.000000   0.000000   0.000000
      5       0.000000   0.000000   0.000000   0.000000   0.000000   0.000000
      6       0.000000   0.000000   0.000000   0.000000   0.000000   0.000000
      7       0.000000   0.000000   0.000000   0.000000   0.000000   0.000000
      8       0.000000   0.000000   0.000000   0.000000   0.000000   0.000000
      9       0.000000   0.000000   0.000000   0.000000   0.000000   0.000000
     10       0.000000   0.000000   0.000000   0.000000   0.000000   0.000000
     11       0.000000   0.000000   0.000000   0.000000   0.000000   0.000000
     12       0.000000   0.000000   0.000000   0.000000   0.000000   0.000000
     13       0.000000   0.000000   0.000000   0.000000   0.000000   0.000000
     14       0.000000   0.000000   0.000000   0.000000   0.000000   0.000000
     15       0.000000   0.000000   0.000000   0.000000   0.000000   0.000000
     16       0.000000   0.000000   0.000000   0.000000   0.000000   0.000000
     17       0.000000   0.000000   0.000000   0.000000   0.000000   0.000000
     18       0.000000   0.000000   0.000000   0.000000   0.000000   0.000000
     19       0.000000   0.000000   0.000000   0.000000   0.000000   0.000000
     20       0.000000   0.000000   0.000000   0.000000   0.000000   0.000000
     21       0.000000   0.000000   0.000000   0.000000   0.000000   0.000000
     22       0.000000   0.000000   0.000000   0.000000   0.000000   0.000000
     23       0.000000   0.000000   0.000000   0.000000   0.000000   0.000000
     24       0.000000   0.000000   0.000000   0.000000   0.000000   0.000000
     25       0.000000   0.000000   0.000000   0.000000   0.000000   0.000000
     26       0.000000   0.000000   0.000000   0.000000   0.000000   0.000000
     27       0.000000   0.000000   0.000000   0.000000   0.000000   0.000000
     28       0.000000   0.000000   0.000000   0.000000   0.000000   0.000000
     29       0.000000   0.000000   0.000000   0.000000   0.000000   0.000000
                  6          7          8          9         10         11    
      0      -0.019665  -0.008501   0.074820   0.021133   0.020389   0.038648
      1       0.013047  -0.038809   0.061229  -0.059824   0.015399   0.070282
      2      -0.003367   0.024995  -0.049107   0.032881  -0.028913  -0.012602
      3      -0.004333   0.050579   0.040374  -0.002381  -0.009925   0.002912
      4       0.002623  -0.038312   0.004908  -0.001130   0.008331   0.050743
      5       0.000706  -0.002401   0.026003  -0.016815  -0.010341   0.021431
      6       0.055966  -0.127314  -0.114492  -0.024269  -0.001958   0.000510
      7      -0.025086   0.102519  -0.028710   0.036713   0.015116  -0.015791
      8       0.002702   0.064310  -0.135126   0.014285  -0.015640  -0.051146
      9       0.007608   0.029564  -0.062513  -0.035795   0.000231  -0.021620
     10       0.004015  -0.124551  -0.104691  -0.002316  -0.014095  -0.055538
     11      -0.016154  -0.005101   0.129831   0.023202  -0.032005   0.025038
     12      -0.002091   0.073570   0.062591   0.016942  -0.004332  -0.035931
     13      -0.010139   0.154347   0.011964   0.017113  -0.050557  -0.020298
     14       0.016798  -0.133824   0.060060   0.000605   0.053538   0.022797
     15      -0.011220  -0.044655   0.136078   0.161714   0.163258  -0.138266
     16      -0.018813  -0.290083   0.299146   0.530622   0.562523  -0.388864
     17       0.031237   0.026053  -0.038930  -0.197294  -0.175063   0.162741
     18       0.007399  -0.149554  -0.290143   0.344309  -0.213473   0.102435
     19       0.019901  -0.014974  -0.037861  -0.415455   0.220504  -0.304573
     20       0.007184   0.148528   0.214686  -0.576836   0.308224  -0.343861
     21      -0.300410  -0.432478  -0.267774  -0.061798   0.017626   0.079440
     22      -0.175799  -0.119704  -0.114734   0.013904   0.023300   0.067975
     23      -0.608175   0.260284  -0.236574   0.001944   0.021173  -0.317035
     24      -0.019396  -0.000955   0.078845   0.021717   0.081933   0.106049
     25       0.009898  -0.424826   0.441468  -0.027646  -0.470175  -0.394436
     26      -0.000761   0.341558  -0.345725   0.008120   0.443505   0.452332
     27      -0.224118  -0.207541  -0.109320  -0.053208  -0.011140   0.064308
     28       0.382875   0.390980   0.236232   0.060788  -0.017334   0.000428
     29       0.551933   0.075423  -0.379306   0.087670   0.044348  -0.275271
                 12         13         14         15         16         17    
      0      -0.215357  -0.173275   0.051504   0.015860  -0.034758   0.010846
      1       0.158581   0.042543   0.182892   0.035203  -0.070844   0.006813
      2      -0.163432   0.173106  -0.084678   0.031616  -0.073644   0.001254
      3       0.095481   0.123510  -0.032391  -0.005432  -0.083574   0.007316
      4      -0.125838   0.075781  -0.067985   0.003048  -0.177769  -0.012848
      5      -0.020778   0.015517   0.194048   0.039517   0.114638   0.003390
      6      -0.026427   0.030433  -0.088956   0.049289   0.136492  -0.093034
      7      -0.045726   0.088755  -0.177144   0.055393   0.276655   0.041951
      8      -0.029598  -0.008126   0.025071  -0.200683  -0.102262  -0.012046
      9      -0.031427   0.082415   0.200463  -0.001518   0.027871   0.029190
     10       0.224082  -0.093270  -0.002316  -0.045915  -0.000343  -0.024303
     11       0.240527   0.026129  -0.100666   0.012935   0.015759   0.037080
     12       0.117157  -0.131083  -0.145003  -0.041478  -0.029932   0.032018
     13      -0.076970  -0.194442   0.099381  -0.023084   0.040426   0.014293
     14      -0.031309  -0.141356  -0.131471   0.010335   0.015053  -0.023036
     15       0.120383   0.162422   0.098954  -0.030154  -0.024670   0.061301
     16      -0.069414   0.108551   0.349670  -0.140079   0.031921  -0.056095
     17      -0.035089  -0.601813  -0.515127  -0.020589   0.003898  -0.077194
     18       0.391173  -0.133531   0.504326   0.025568   0.229787  -0.082367
     19      -0.022549  -0.056252   0.001827  -0.097168   0.071610  -0.013818
     20      -0.102229   0.067827  -0.071598  -0.062725   0.141438   0.046941
     21      -0.147079  -0.004234  -0.088656  -0.062730   0.186364   0.384215
     22      -0.157981   0.087587  -0.174466  -0.115890   0.341672   0.399036
     23       0.246261  -0.185881  -0.001543   0.663886  -0.426988  -0.406839
     24      -0.378981  -0.382494   0.143570   0.018536   0.054137  -0.144577
     25      -0.528123   0.082070   0.159450   0.038850   0.017784  -0.094710
     26       0.150241  -0.153697   0.064508   0.033467  -0.023599  -0.130562
     27      -0.064428   0.091403  -0.076972  -0.157429   0.209464  -0.081419
     28       0.020274   0.232167  -0.148522  -0.110103   0.392666  -0.505607
     29       0.040068  -0.331438  -0.039944   0.642282  -0.460413   0.425287
                 18         19         20         21         22         23    
      0       0.103808  -0.024739   0.077486  -0.027002   0.045434  -0.046128
      1       0.155436  -0.006190   0.003637  -0.058795   0.225888  -0.057387
      2       0.160901   0.002009   0.000325  -0.050912   0.235056  -0.063757
      3      -0.019238   0.022053   0.009741   0.033552   0.029784   0.302288
      4      -0.047971   0.000631  -0.010378   0.055062  -0.215373  -0.073045
      5       0.039711  -0.001425  -0.023857  -0.027452  -0.262495   0.101417
      6      -0.000392  -0.009584   0.017004  -0.012708  -0.006320  -0.024023
      7       0.009592   0.002111  -0.008625  -0.000047   0.016050   0.006327
      8      -0.000901   0.005110   0.002133  -0.006944   0.006617  -0.003506
      9      -0.203831  -0.094984  -0.002962   0.012405   0.075458  -0.216595
     10      -0.012702  -0.007289  -0.002945  -0.069172  -0.016787   0.068084
     11      -0.129845  -0.042108  -0.005978   0.050716   0.067528  -0.176452
     12       0.127052   0.028825  -0.080791  -0.066185  -0.184223  -0.185108
     13      -0.087847   0.015686   0.066113   0.018593   0.099060   0.085940
     14      -0.114410   0.052718   0.093402   0.009179   0.098155   0.059648
     15      -0.132275   0.386982   0.132557  -0.218521  -0.211301  -0.375437
     16       0.185843  -0.403456  -0.183236   0.161996   0.127222   0.296384
     17       0.363692  -0.598576  -0.301842   0.280796   0.129391   0.400556
     18       0.567893   0.333990   0.052893   0.787986   0.085269  -0.433178
     19       0.216926   0.113602   0.014944   0.150063  -0.008293   0.019925
     20       0.242627   0.155302   0.022724   0.415034   0.088300  -0.272559
     21       0.017079   0.027893  -0.064945   0.014565   0.051665   0.123618
     22       0.025021   0.031673  -0.067096   0.020751   0.065215   0.113184
     23      -0.064087  -0.039758   0.048683  -0.010884  -0.111239  -0.096110
     24      -0.372742   0.259563  -0.567164   0.014662   0.364882   0.103233
     25      -0.188828   0.211008  -0.500670  -0.018558   0.487530   0.062990
     26      -0.206258   0.217738  -0.478885  -0.029707   0.474262   0.031134
     27       0.012216  -0.003891   0.015504  -0.012906   0.017732  -0.020572
     28       0.021714  -0.038240   0.090414  -0.051424  -0.052485  -0.171462
     29      -0.061661   0.022025  -0.078699   0.047241  -0.019842   0.143793
                 24         25         26         27         28         29    
      0      -0.000758   0.000403  -0.000126   0.044565   0.004812   0.000428
      1      -0.001062   0.000025   0.000096  -0.027146  -0.003021  -0.000329
      2       0.000331  -0.000135   0.000098  -0.033775  -0.003887  -0.000369
      3       0.000917  -0.000297  -0.000114   0.000743  -0.000486   0.000041
      4       0.000102  -0.000645   0.000058   0.000224  -0.000399  -0.000289
      5      -0.003286   0.000150  -0.000026   0.000158  -0.000051  -0.000635
      6      -0.025241  -0.014698  -0.065125  -0.000083   0.000208   0.000381
      7      -0.065140  -0.045500   0.024935   0.000490  -0.000169   0.000195
      8      -0.009914  -0.015593  -0.008319   0.000084  -0.000075  -0.000003
      9       0.000227  -0.000093  -0.000012   0.000156  -0.000540   0.000087
     10       0.000845   0.000485  -0.000160   0.005788  -0.051364  -0.000398
     11      -0.000327  -0.000438   0.000148  -0.003716   0.035065   0.000331
     12       0.000084   0.000080  -0.000182   0.000219   0.000309  -0.054519
     13       0.001339   0.000021   0.000035   0.000018   0.000033   0.003679
     14      -0.000750  -0.000348  -0.000098   0.000233   0.000234  -0.030571
     15      -0.001029   0.004246   0.002293  -0.005050  -0.007404   0.859597
     16      -0.001155   0.000047  -0.000416   0.000485   0.000698  -0.048392
     17       0.001740   0.002103   0.001531  -0.003022  -0.004267   0.504677
     18       0.005157  -0.000906  -0.000145  -0.003330   0.026964  -0.000104
     19       0.000322  -0.003199   0.002960  -0.091461   0.824206   0.006460
     20      -0.000643   0.001979  -0.002171   0.061015  -0.551222  -0.004211
     21       0.589913  -0.412555   0.370448   0.004144  -0.002667   0.000246
     22       0.347378   0.588217  -0.576757  -0.005803   0.003938  -0.001679
     23       0.179228   0.062642  -0.074119  -0.000618   0.000924   0.000505
     24       0.000742  -0.004866   0.002070  -0.725271  -0.080111  -0.004937
     25       0.000790   0.002584  -0.001190   0.421966   0.046977   0.002402
     26       0.000616   0.003346  -0.001577   0.528984   0.058934   0.003474
     27      -0.211618   0.649121   0.667127  -0.002354   0.000225  -0.004779
     28       0.666025   0.143366   0.178536  -0.000249   0.000228  -0.000995
     29       0.076205   0.188024   0.206714  -0.000553  -0.000381  -0.001553


-----------
IR SPECTRUM
-----------

 Mode    freq (cm**-1)   T**2         TX         TY         TZ
-------------------------------------------------------------------
   7:       108.77  120.311250  ( -5.126040  -5.792239   7.777206)
   8:       138.99  116.620544  ( -2.173788   8.123444  -6.775311)
   9:       156.52  118.996255  (  4.686864   1.776555  -9.688829)
  10:       187.78   74.657984  ( -0.446907   4.727466   7.218679)
  11:       195.62   67.839221  (  3.310357  -6.628421  -3.597887)
  12:       227.57  132.967519  (  3.592989 -10.922760   0.866750)
  13:       229.53  149.863879  (  5.305869   7.606747  -7.990559)
  14:       257.70   41.498088  (  2.183568  -2.819494   5.364753)
  15:       406.08  331.684541  ( -3.549376  -6.616110  16.592575)
  16:       465.72   14.341666  ( -0.141996  -3.708712   0.752968)
  17:       592.40   19.542636  (  1.470922  -3.622783  -2.062636)
  18:       630.90   25.302939  ( -0.728133  -2.808937   4.108848)
  19:       651.08  234.722822  ( 15.188140  -1.534421  -1.299530)
  20:       663.26  218.944119  ( -1.969179  -8.951364 -11.616348)
  21:       685.28  200.279112  (  9.764055   8.269945   6.045688)
  22:       822.72  170.055937  (  4.142774  -7.375274  -9.924651)
  23:       834.18  208.935253  ( 12.289001  -2.220331   7.279137)
  24:      1520.51  148.168526  (  4.361649  11.180418   2.035385)
  25:      3628.61  126.176348  (  3.396061  10.391398   2.581079)
  26:      3699.37  272.465380  ( 15.293858  -5.900630   1.935422)
  27:      3741.35   63.024546  ( -4.069637   3.401443   5.907012)
  28:      3747.94   73.589140  ( -2.253013   6.727155  -4.822703)
  29:      3751.71   61.142422  (  7.291651  -1.360672   2.474432)

The first frequency considered to be a vibration is 7
The total number of vibrations considered is 23


--------------------------
THERMOCHEMISTRY AT 298.15K
--------------------------

Temperature         ... 298.15 K
Pressure            ... 1.00 atm
Total Mass          ... 96.02 AMU

Throughout the following assumptions are being made:
  (1) The electronic state is orbitally nondegenerate
  (2) There are no thermally accessible electronically excited states
  (3) Hindered rotations indicated by low frequency modes are not
      treated as such but are treated as vibrations and this may
      cause some error
  (4) All equations used are the standard statistical mechanics
      equations for an ideal gas
  (5) All vibrations are strictly harmonic

freq.     108.77  E(vib)   ...       0.45 
freq.     138.99  E(vib)   ...       0.42 
freq.     156.52  E(vib)   ...       0.40 
freq.     187.78  E(vib)   ...       0.36 
freq.     195.62  E(vib)   ...       0.36 
freq.     227.57  E(vib)   ...       0.33 
freq.     229.53  E(vib)   ...       0.32 
freq.     257.70  E(vib)   ...       0.30 
freq.     406.08  E(vib)   ...       0.19 
freq.     465.72  E(vib)   ...       0.16 
freq.     592.40  E(vib)   ...       0.10 
freq.     630.90  E(vib)   ...       0.09 
freq.     651.08  E(vib)   ...       0.08 
freq.     663.26  E(vib)   ...       0.08 
freq.     685.28  E(vib)   ...       0.07 
freq.     822.72  E(vib)   ...       0.05 
freq.     834.18  E(vib)   ...       0.04 
freq.    1520.51  E(vib)   ...       0.00 
freq.    3628.61  E(vib)   ...       0.00 
freq.    3699.37  E(vib)   ...       0.00 
freq.    3741.35  E(vib)   ...       0.00 
freq.    3747.94  E(vib)   ...       0.00 
freq.    3751.71  E(vib)   ...       0.00 

------------
INNER ENERGY
------------

The inner energy is: U= E(el) + E(ZPE) + E(vib) + E(rot) + E(trans)
    E(el)   - is the total energy from the electronic structure calculation
              = E(kin-el) + E(nuc-el) + E(el-el) + E(nuc-nuc)
    E(ZPE)  - the the zero temperature vibrational energy from the frequency calculation
    E(vib)  - the the finite temperature correction to E(ZPE) due to population
              of excited vibrational states
    E(rot)  - is the rotational thermal energy
    E(trans)- is the translational thermal energy

Summary of contributions to the inner energy U:
Electronic energy                ...   -546.28209598 Eh
Zero point energy                ...      0.06229324 Eh      39.09 kcal/mol
Thermal vibrational correction   ...      0.00606003 Eh       3.80 kcal/mol
Thermal rotational correction    ...      0.00141627 Eh       0.89 kcal/mol
Thermal translational correction ...      0.00141627 Eh       0.89 kcal/mol
-----------------------------------------------------------------------
Total thermal energy                   -546.21091017 Eh


Summary of corrections to the electronic energy:
(perhaps to be used in another calculation)
Total thermal correction                  0.00889257 Eh       5.58 kcal/mol
Non-thermal (ZPE) correction              0.06229324 Eh      39.09 kcal/mol
-----------------------------------------------------------------------
Total correction                          0.07118581 Eh      44.67 kcal/mol


--------
ENTHALPY
--------

The enthalpy is H = U + kB*T
                kB is Boltzmann's constant
Total free energy                 ...   -546.21091017 Eh 
Thermal Enthalpy correction       ...      0.00094421 Eh       0.59 kcal/mol
-----------------------------------------------------------------------
Total Enthalpy                    ...   -546.20996596 Eh


Note: Only C1 symmetry has been detected, increase convergence thresholds 
      if your molecule has a higher symmetry. Symmetry factor of 1.0 is   
      used for the rotational entropy correction. 
 

Note: Rotational entropy computed according to Herzberg 
Infrared and Raman Spectra, Chapter V,1, Van Nostrand Reinhold, 1945 
Point Group:  C1, Symmetry Number:   1  
Rotational constants in cm-1:     0.114509     0.107734     0.103036 

Vibrational entropy computed according to the QRRHO of S. Grimme
Chem.Eur.J. 2012 18 9955


-------
ENTROPY
-------

The entropy contributions are T*S = T*(S(el)+S(vib)+S(rot)+S(trans))
     S(el)   - electronic entropy
     S(vib)  - vibrational entropy
     S(rot)  - rotational entropy
     S(trans)- translational entropy
The entropies will be listed as mutliplied by the temperature to get
units of energy

Electronic entropy                ...      0.00000000 Eh      0.00 kcal/mol
Vibrational entropy               ...      0.01058555 Eh      6.64 kcal/mol
Rotational entropy                ...      0.01265865 Eh      7.94 kcal/mol
Translational entropy             ...      0.01881369 Eh     11.81 kcal/mol
-----------------------------------------------------------------------
Final entropy term                ...      0.04205789 Eh     26.39 kcal/mol

In case the symmetry of your molecule has not been determined correctly
or in case you have a reason to use a different symmetry number we print 
out the resulting rotational entropy values for sn=1,12 :
 --------------------------------------------------------
|  sn= 1 | S(rot)=       0.01265865 Eh      7.94 kcal/mol|
|  sn= 2 | S(rot)=       0.01200419 Eh      7.53 kcal/mol|
|  sn= 3 | S(rot)=       0.01162136 Eh      7.29 kcal/mol|
|  sn= 4 | S(rot)=       0.01134974 Eh      7.12 kcal/mol|
|  sn= 5 | S(rot)=       0.01113905 Eh      6.99 kcal/mol|
|  sn= 6 | S(rot)=       0.01096690 Eh      6.88 kcal/mol|
|  sn= 7 | S(rot)=       0.01082136 Eh      6.79 kcal/mol|
|  sn= 8 | S(rot)=       0.01069528 Eh      6.71 kcal/mol|
|  sn= 9 | S(rot)=       0.01058407 Eh      6.64 kcal/mol|
|  sn=10 | S(rot)=       0.01048459 Eh      6.58 kcal/mol|
|  sn=11 | S(rot)=       0.01039460 Eh      6.52 kcal/mol|
|  sn=12 | S(rot)=       0.01031245 Eh      6.47 kcal/mol|
 --------------------------------------------------------


-------------------
GIBBS FREE ENERGY
-------------------

The Gibbs free energy is G = H - T*S

Total enthalpy                    ...   -546.20996596 Eh 
Total entropy correction          ...     -0.04205789 Eh    -26.39 kcal/mol
-----------------------------------------------------------------------
Final Gibbs free energy         ...   -546.25202385 Eh

For completeness - the Gibbs free energy minus the electronic energy
G-E(el)                           ...      0.03007213 Eh     18.87 kcal/mol


Timings for individual modules:

Sum of individual times         ...       26.929 sec (=   0.449 min)
GTO integral calculation        ...        0.939 sec (=   0.016 min)   3.5 %
SCF iterations                  ...        4.998 sec (=   0.083 min)  18.6 %
Analytical frequency calculation...       20.991 sec (=   0.350 min)  78.0 %
                             ****ORCA TERMINATED NORMALLY****
TOTAL RUN TIME: 0 days 0 hours 0 minutes 27 seconds 934 msec
