{
    "schema_name": "qc_schema_output",
    "schema_version": 1,
    "qcjson_creator_version": "0.2.0",
    "provenance": {
        "creator": "ORCA",
        "version": "4.2.0"
    },
    "molecule": {
        "geometry": [[-1.796299, 0.672553, 0.608887], [-1.316251, 1.852981, 1.807104], [-0.537533, 3.35536, 0.841576], [0.063813, 1.568253, 2.84629], [-2.674325, 2.617172, 2.602699], [-3.503741, 2.656047, 2.09494], [0.018284, 0.754631, 3.379411], [-1.071142, 4.171964, 0.952234], [-1.070206, 0.270131, 0.099293], [0.36988, 3.595367, 1.128676]],
        "symbols": [ "O", "Al", "O", "O", "O", "H", "H", "H", "H", "H" ]
    },
    "molecular_charge": 0,
    "molecular_multiplicity": 1,
    "name": "alo3h3.h2o-orca.freq-bp86.def2svp.cpcm",
    "atomic_numbers": [8, 13, 8, 8, 8, 1, 1, 1, 1, 1],
    "driver": "frequency",
    "model": {
        "method": "BP86",
        "basis": "def2-SVP",
        "aux_basis": "def2/J"
    },
    "keywords": {
        "dispersion": "D3BJ",
        "implicit_solvent": "CPCM",
        "solvent_name": "water",
        "scf_convergence_tolerance": "Tight",
        "rij_approximation": true,
        "scf_grid_level": 4,
        "final_grid_level": 4
    },
    "properties": {
        "scf_total_energy": -546.282095972,
        "scf_dispersion_correction_energy": -0.009432092000000001,
        "scf_iterations": 15,
        "scf_dipole_moment": [ 1.01984, 1.39746, -1.09063 ],
        "return_energy": -546.252023842,
        "calcinfo_nbasis": 99,
        "calcinfo_nmo": 99,
        "nuclear_repulsion_energy": 249.03263281,
        "scf_one_electron_energy": -1252.64959701,
        "scf_two_electron_energy": 457.34430031,
        "scf_xc_energy": -55.0525119836,
        "mulliken_charges": [ -0.512945, 0.636344, -0.227, -0.519363, -0.522379, 0.204163, 0.209114, 0.259108, 0.207873, 0.265085 ],
        "loewdin_charges": [ -0.295512, 0.229182, 0.073713, -0.29849, -0.299043, 0.091269, 0.092503, 0.155125, 0.092196, 0.159056 ],
        "omega": [ 0.0, 0.0, 0.0, 0.0, 0.0, 0.0, -219.64, 108.77, 138.99, 156.52, 187.78, 195.62, 227.57, 229.53, 257.7, 406.08, 465.72, 592.4, 630.9, 651.08, 663.26, 685.28, 822.72, 834.18, 1520.51, 3628.61, 3699.37, 3741.35, 3747.94, 3751.71 ],
        "q": [
            [ 0.0, 0.0, 0.0, 0.0, 0.0, 0.0, -0.019665, -0.008501, 0.07482, 0.021133, 0.020389, 0.038648, -0.215357, -0.173275, 0.051504, 0.01586, -0.034758, 0.010846, 0.103808, -0.024739, 0.077486, -0.027002, 0.045434, -0.046128, -0.000758, 0.000403, -0.000126, 0.044565, 0.004812, 0.000428 ],
            [ 0.0, 0.0, 0.0, 0.0, 0.0, 0.0, 0.013047, -0.038809, 0.061229, -0.059824, 0.015399, 0.070282, 0.158581, 0.042543, 0.182892, 0.035203, -0.070844, 0.006813, 0.155436, -0.00619, 0.003637, -0.058795, 0.225888, -0.057387, -0.001062, 2.5e-05, 9.6e-05, -0.027146, -0.003021, -0.000329 ],
            [ 0.0, 0.0, 0.0, 0.0, 0.0, 0.0, -0.003367, 0.024995, -0.049107, 0.032881, -0.028913, -0.012602, -0.163432, 0.173106, -0.084678, 0.031616, -0.073644, 0.001254, 0.160901, 0.002009, 0.000325, -0.050912, 0.235056, -0.063757, 0.000331, -0.000135, 9.8e-05, -0.033775, -0.003887, -0.000369 ],
            [ 0.0, 0.0, 0.0, 0.0, 0.0, 0.0, -0.004333, 0.050579, 0.040374, -0.002381, -0.009925, 0.002912, 0.095481, 0.12351, -0.032391, -0.005432, -0.083574, 0.007316, -0.019238, 0.022053, 0.009741, 0.033552, 0.029784, 0.302288, 0.000917, -0.000297, -0.000114, 0.000743, -0.000486, 4.1e-05 ],
            [ 0.0, 0.0, 0.0, 0.0, 0.0, 0.0, 0.002623, -0.038312, 0.004908, -0.00113, 0.008331, 0.050743, -0.125838, 0.075781, -0.067985, 0.003048, -0.177769, -0.012848, -0.047971, 0.000631, -0.010378, 0.055062, -0.215373, -0.073045, 0.000102, -0.000645, 5.8e-05, 0.000224, -0.000399, -0.000289 ],
            [ 0.0, 0.0, 0.0, 0.0, 0.0, 0.0, 0.000706, -0.002401, 0.026003, -0.016815, -0.010341, 0.021431, -0.020778, 0.015517, 0.194048, 0.039517, 0.114638, 0.00339, 0.039711, -0.001425, -0.023857, -0.027452, -0.262495, 0.101417, -0.003286, 0.00015, -2.6e-05, 0.000158, -5.1e-05, -0.000635 ],
            [ 0.0, 0.0, 0.0, 0.0, 0.0, 0.0, 0.055966, -0.127314, -0.114492, -0.024269, -0.001958, 0.00051, -0.026427, 0.030433, -0.088956, 0.049289, 0.136492, -0.093034, -0.000392, -0.009584, 0.017004, -0.012708, -0.00632, -0.024023, -0.025241, -0.014698, -0.065125, -8.3e-05, 0.000208, 0.000381 ],
            [ 0.0, 0.0, 0.0, 0.0, 0.0, 0.0, -0.025086, 0.102519, -0.02871, 0.036713, 0.015116, -0.015791, -0.045726, 0.088755, -0.177144, 0.055393, 0.276655, 0.041951, 0.009592, 0.002111, -0.008625, -4.7e-05, 0.01605, 0.006327, -0.06514, -0.0455, 0.024935, 0.00049, -0.000169, 0.000195 ],
            [ 0.0, 0.0, 0.0, 0.0, 0.0, 0.0, 0.002702, 0.06431, -0.135126, 0.014285, -0.01564, -0.051146, -0.029598, -0.008126, 0.025071, -0.200683, -0.102262, -0.012046, -0.000901, 0.00511, 0.002133, -0.006944, 0.006617, -0.003506, -0.009914, -0.015593, -0.008319, 8.4e-05, -7.5e-05, -3e-06 ],
            [ 0.0, 0.0, 0.0, 0.0, 0.0, 0.0, 0.007608, 0.029564, -0.062513, -0.035795, 0.000231, -0.02162, -0.031427, 0.082415, 0.200463, -0.001518, 0.027871, 0.02919, -0.203831, -0.094984, -0.002962, 0.012405, 0.075458, -0.216595, 0.000227, -9.3e-05, -1.2e-05, 0.000156, -0.00054, 8.7e-05 ],
            [ 0.0, 0.0, 0.0, 0.0, 0.0, 0.0, 0.004015, -0.124551, -0.104691, -0.002316, -0.014095, -0.055538, 0.224082, -0.09327, -0.002316, -0.045915, -0.000343, -0.024303, -0.012702, -0.007289, -0.002945, -0.069172, -0.016787, 0.068084, 0.000845, 0.000485, -0.00016, 0.005788, -0.051364, -0.000398 ],
            [ 0.0, 0.0, 0.0, 0.0, 0.0, 0.0, -0.016154, -0.005101, 0.129831, 0.023202, -0.032005, 0.025038, 0.240527, 0.026129, -0.100666, 0.012935, 0.015759, 0.03708, -0.129845, -0.042108, -0.005978, 0.050716, 0.067528, -0.176452, -0.000327, -0.000438, 0.000148, -0.003716, 0.035065, 0.000331 ],
            [ 0.0, 0.0, 0.0, 0.0, 0.0, 0.0, -0.002091, 0.07357, 0.062591, 0.016942, -0.004332, -0.035931, 0.117157, -0.131083, -0.145003, -0.041478, -0.029932, 0.032018, 0.127052, 0.028825, -0.080791, -0.066185, -0.184223, -0.185108, 8.4e-05, 8e-05, -0.000182, 0.000219, 0.000309, -0.054519 ],
            [ 0.0, 0.0, 0.0, 0.0, 0.0, 0.0, -0.010139, 0.154347, 0.011964, 0.017113, -0.050557, -0.020298, -0.07697, -0.194442, 0.099381, -0.023084, 0.040426, 0.014293, -0.087847, 0.015686, 0.066113, 0.018593, 0.09906, 0.08594, 0.001339, 2.1e-05, 3.5e-05, 1.8e-05, 3.3e-05, 0.003679 ],
            [ 0.0, 0.0, 0.0, 0.0, 0.0, 0.0, 0.016798, -0.133824, 0.06006, 0.000605, 0.053538, 0.022797, -0.031309, -0.141356, -0.131471, 0.010335, 0.015053, -0.023036, -0.11441, 0.052718, 0.093402, 0.009179, 0.098155, 0.059648, -0.00075, -0.000348, -9.8e-05, 0.000233, 0.000234, -0.030571 ],
            [ 0.0, 0.0, 0.0, 0.0, 0.0, 0.0, -0.01122, -0.044655, 0.136078, 0.161714, 0.163258, -0.138266, 0.120383, 0.162422, 0.098954, -0.030154, -0.02467, 0.061301, -0.132275, 0.386982, 0.132557, -0.218521, -0.211301, -0.375437, -0.001029, 0.004246, 0.002293, -0.00505, -0.007404, 0.859597 ],
            [ 0.0, 0.0, 0.0, 0.0, 0.0, 0.0, -0.018813, -0.290083, 0.299146, 0.530622, 0.562523, -0.388864, -0.069414, 0.108551, 0.34967, -0.140079, 0.031921, -0.056095, 0.185843, -0.403456, -0.183236, 0.161996, 0.127222, 0.296384, -0.001155, 4.7e-05, -0.000416, 0.000485, 0.000698, -0.048392 ],
            [ 0.0, 0.0, 0.0, 0.0, 0.0, 0.0, 0.031237, 0.026053, -0.03893, -0.197294, -0.175063, 0.162741, -0.035089, -0.601813, -0.515127, -0.020589, 0.003898, -0.077194, 0.363692, -0.598576, -0.301842, 0.280796, 0.129391, 0.400556, 0.00174, 0.002103, 0.001531, -0.003022, -0.004267, 0.504677 ],
            [ 0.0, 0.0, 0.0, 0.0, 0.0, 0.0, 0.007399, -0.149554, -0.290143, 0.344309, -0.213473, 0.102435, 0.391173, -0.133531, 0.504326, 0.025568, 0.229787, -0.082367, 0.567893, 0.33399, 0.052893, 0.787986, 0.085269, -0.433178, 0.005157, -0.000906, -0.000145, -0.00333, 0.026964, -0.000104 ],
            [ 0.0, 0.0, 0.0, 0.0, 0.0, 0.0, 0.019901, -0.014974, -0.037861, -0.415455, 0.220504, -0.304573, -0.022549, -0.056252, 0.001827, -0.097168, 0.07161, -0.013818, 0.216926, 0.113602, 0.014944, 0.150063, -0.008293, 0.019925, 0.000322, -0.003199, 0.00296, -0.091461, 0.824206, 0.00646 ],
            [ 0.0, 0.0, 0.0, 0.0, 0.0, 0.0, 0.007184, 0.148528, 0.214686, -0.576836, 0.308224, -0.343861, -0.102229, 0.067827, -0.071598, -0.062725, 0.141438, 0.046941, 0.242627, 0.155302, 0.022724, 0.415034, 0.0883, -0.272559, -0.000643, 0.001979, -0.002171, 0.061015, -0.551222, -0.004211 ],
            [ 0.0, 0.0, 0.0, 0.0, 0.0, 0.0, -0.30041, -0.432478, -0.267774, -0.061798, 0.017626, 0.07944, -0.147079, -0.004234, -0.088656, -0.06273, 0.186364, 0.384215, 0.017079, 0.027893, -0.064945, 0.014565, 0.051665, 0.123618, 0.589913, -0.412555, 0.370448, 0.004144, -0.002667, 0.000246 ],
            [ 0.0, 0.0, 0.0, 0.0, 0.0, 0.0, -0.175799, -0.119704, -0.114734, 0.013904, 0.0233, 0.067975, -0.157981, 0.087587, -0.174466, -0.11589, 0.341672, 0.399036, 0.025021, 0.031673, -0.067096, 0.020751, 0.065215, 0.113184, 0.347378, 0.588217, -0.576757, -0.005803, 0.003938, -0.001679 ],
            [ 0.0, 0.0, 0.0, 0.0, 0.0, 0.0, -0.608175, 0.260284, -0.236574, 0.001944, 0.021173, -0.317035, 0.246261, -0.185881, -0.001543, 0.663886, -0.426988, -0.406839, -0.064087, -0.039758, 0.048683, -0.010884, -0.111239, -0.09611, 0.179228, 0.062642, -0.074119, -0.000618, 0.000924, 0.000505 ],
            [ 0.0, 0.0, 0.0, 0.0, 0.0, 0.0, -0.019396, -0.000955, 0.078845, 0.021717, 0.081933, 0.106049, -0.378981, -0.382494, 0.14357, 0.018536, 0.054137, -0.144577, -0.372742, 0.259563, -0.567164, 0.014662, 0.364882, 0.103233, 0.000742, -0.004866, 0.00207, -0.725271, -0.080111, -0.004937 ],
            [ 0.0, 0.0, 0.0, 0.0, 0.0, 0.0, 0.009898, -0.424826, 0.441468, -0.027646, -0.470175, -0.394436, -0.528123, 0.08207, 0.15945, 0.03885, 0.017784, -0.09471, -0.188828, 0.211008, -0.50067, -0.018558, 0.48753, 0.06299, 0.00079, 0.002584, -0.00119, 0.421966, 0.046977, 0.002402 ],
            [ 0.0, 0.0, 0.0, 0.0, 0.0, 0.0, -0.000761, 0.341558, -0.345725, 0.00812, 0.443505, 0.452332, 0.150241, -0.153697, 0.064508, 0.033467, -0.023599, -0.130562, -0.206258, 0.217738, -0.478885, -0.029707, 0.474262, 0.031134, 0.000616, 0.003346, -0.001577, 0.528984, 0.058934, 0.003474 ],
            [ 0.0, 0.0, 0.0, 0.0, 0.0, 0.0, -0.224118, -0.207541, -0.10932, -0.053208, -0.01114, 0.064308, -0.064428, 0.091403, -0.076972, -0.157429, 0.209464, -0.081419, 0.012216, -0.003891, 0.015504, -0.012906, 0.017732, -0.020572, -0.211618, 0.649121, 0.667127, -0.002354, 0.000225, -0.004779 ],
            [ 0.0, 0.0, 0.0, 0.0, 0.0, 0.0, 0.382875, 0.39098, 0.236232, 0.060788, -0.017334, 0.000428, 0.020274, 0.232167, -0.148522, -0.110103, 0.392666, -0.505607, 0.021714, -0.03824, 0.090414, -0.051424, -0.052485, -0.171462, 0.666025, 0.143366, 0.178536, -0.000249, 0.000228, -0.000995 ],
            [ 0.0, 0.0, 0.0, 0.0, 0.0, 0.0, 0.551933, 0.075423, -0.379306, 0.08767, 0.044348, -0.275271, 0.040068, -0.331438, -0.039944, 0.642282, -0.460413, 0.425287, -0.061661, 0.022025, -0.078699, 0.047241, -0.019842, 0.143793, 0.076205, 0.188024, 0.206714, -0.000553, -0.000381, -0.001553 ]
        ],
        "temperature": 298.15,
        "zero_point_vibrational_correction": 0.06229324,
        "thermal_energy_corrections": 0.00889257,
        "enthalpic_corrections": 0.00094421,
        "entropic_corrections": 0.04205789,
        "alpha_homo_energy": -0.228623,
        "alpha_homo_lumo_gap_energy": 0.22215,
        "beta_homo_energy": -0.228623,
        "beta_homo_lumo_gap_energy": 0.22215
    },
    "success": true
}