
                                 *****************
                                 * O   R   C   A *
                                 *****************

           --- An Ab Initio, DFT and Semiempirical electronic structure package ---

                  #######################################################
                  #                        -***-                        #
                  #          Department of theory and spectroscopy      #
                  #               Directorship: Frank Neese             #
                  #        Max Planck Institute fuer Kohlenforschung    #
                  #                Kaiser Wilhelm Platz 1               #
                  #                 D-45470 Muelheim/Ruhr               #
                  #                      Germany                        #
                  #                                                     #
                  #                  All rights reserved                #
                  #                        -***-                        #
                  #######################################################


                         Program Version 4.2.0 -  RELEASE  -


 With contributions from (in alphabetic order):
   Daniel Aravena         : Magnetic Suceptibility
   Michael Atanasov       : Ab Initio Ligand Field Theory (pilot matlab implementation)
   Alexander A. Auer      : GIAO ZORA, VPT2
   Ute Becker             : Parallelization
   Giovanni Bistoni       : ED, misc. LED, open-shell LED, HFLED
   Martin Brehm           : Molecular dynamics
   Dmytro Bykov           : SCF Hessian
   Vijay G. Chilkuri      : MRCI spin determinant printing, contributions to CSF-ICE
   Dipayan Datta          : RHF DLPNO-CCSD density
   Achintya Kumar Dutta   : EOM-CC, STEOM-CC
   Dmitry Ganyushin       : Spin-Orbit,Spin-Spin,Magnetic field MRCI
   Miquel Garcia          : C-PCM Hessian, Gaussian charge scheme
   Yang Guo               : DLPNO-NEVPT2, CIM, IAO-localization
   Andreas Hansen         : Spin unrestricted coupled pair/coupled cluster methods
   Benjamin Helmich-Paris : CASSCF linear response (MC-RPA)
   Lee Huntington         : MR-EOM, pCC
   Robert Izsak           : Overlap fitted RIJCOSX, COSX-SCS-MP3, EOM
   Christian Kollmar      : KDIIS, OOCD, Brueckner-CCSD(T), CCSD density
   Simone Kossmann        : Meta GGA functionals, TD-DFT gradient, OOMP2, MP2 Hessian
   Martin Krupicka        : AUTO-CI
   Lucas Lang             : DCDCAS
   Dagmar Lenk            : GEPOL surface, SMD
   Dimitrios Liakos       : Extrapolation schemes; Compound Job, initial MDCI parallelization
   Dimitrios Manganas     : Further ROCIS development; embedding schemes
   Dimitrios Pantazis     : SARC Basis sets
   Taras Petrenko         : DFT Hessian,TD-DFT gradient, ASA, ECA, R-Raman, ABS, FL, XAS/XES, NRVS
   Peter Pinski           : DLPNO-MP2, DLPNO-MP2 Gradient
   Christoph Reimann      : Effective Core Potentials
   Marius Retegan         : Local ZFS, SOC
   Christoph Riplinger    : Optimizer, TS searches, QM/MM, DLPNO-CCSD(T), (RO)-DLPNO pert. Triples
   Tobias Risthaus        : Range-separated hybrids, TD-DFT gradient, RPA, STAB
   Michael Roemelt        : Original ROCIS implementation
   Masaaki Saitow         : Open-shell DLPNO-CCSD energy and density
   Barbara Sandhoefer     : DKH picture change effects
   Avijit Sen             : IP-ROCIS
   Kantharuban Sivalingam : CASSCF convergence, NEVPT2, FIC-MRCI
   Bernardo de Souza      : ESD, SOC TD-DFT
   Georgi Stoychev        : AutoAux, RI-MP2 NMR
   Willem Van den Heuvel  : Paramagnetic NMR
   Boris Wezisla          : Elementary symmetry handling
   Frank Wennmohs         : Technical directorship


 We gratefully acknowledge several colleagues who have allowed us to
 interface, adapt or use parts of their codes:
   Stefan Grimme, W. Hujo, H. Kruse,             : VdW corrections, initial TS optimization,
                  C. Bannwarth                     DFT functionals, gCP, sTDA/sTD-DF
   Ed Valeev, F. Pavosevic, A. Kumar             : LibInt (2-el integral package), F12 methods
   Garnet Chan, S. Sharma, J. Yang, R. Olivares  : DMRG
   Ulf Ekstrom                                   : XCFun DFT Library
   Mihaly Kallay                                 : mrcc  (arbitrary order and MRCC methods)
   Andreas Klamt, Michael Diedenhofen            : otool_cosmo (COSMO solvation model)
   Jiri Pittner, Ondrej Demel                    : Mk-CCSD
   Frank Weinhold                                : gennbo (NPA and NBO analysis)
   Christopher J. Cramer and Donald G. Truhlar   : smd solvation model
   Lars Goerigk                                  : TD-DFT with DH, B97 family of functionals
   V. Asgeirsson, H. Jonsson                     : NEB implementation
   FAccTs GmbH                                   : IRC, NEB, NEB-TS, Multilevel, MM, QM/MM, CI optimization
   S Lehtola, MJT Oliveira, MAL Marques          : LibXC Library


 Your calculation uses the libint2 library for the computation of 2-el integrals
 For citations please refer to: http://libint.valeyev.net

 Your ORCA version has been built with support for libXC version: 4.2.3
 For citations please refer to: https://tddft.org/programs/libxc/

 This ORCA versions uses:
   CBLAS   interface :  Fast vector & matrix operations
   LAPACKE interface :  Fast linear algebra routines
   SCALAPACK package :  Parallel linear algebra routines


Your calculation utilizes the atom-pairwise dispersion correction
with the Becke-Johnson damping scheme (D3BJ)
Cite in your paper:
S.Grimme, S.Ehrlich, L.Goerigk, J Comput Chem, (2011), 32, 1456–1465 
S.Grimme, J.Antony, S.Ehrlich and H.Krieg, J.Chem.Phys., 132, (2010), 154104 
   

----- Orbital basis set information -----
Your calculation utilizes the basis: def2-SVP
   F. Weigend and R. Ahlrichs, Phys. Chem. Chem. Phys. 7, 3297 (2005).

----- AuxJ basis set information -----
Your calculation utilizes the auxiliary basis: def2/J
   F. Weigend, Phys. Chem. Chem. Phys. 8, 1057 (2006).

================================================================================
                                        WARNINGS
                       Please study these warnings very carefully!
================================================================================


INFO   : the flag for use of LIBINT has been found!

================================================================================
                                       INPUT FILE
================================================================================
NAME = alo3h3.h2o-orca.freq-bp86.def2svp.inp
|  1> ! FREQ
|  2> ! BP86 D3BJ def2-SVP RI def2/J
|  3> ! TightSCF Grid4 NoFinalGrid
|  4> 
|  5> %pal nprocs 8 end
|  6> %maxcore 8000
|  7> 
|  8> *xyz  0  1
|  9>   O  -1.84932789197074      0.63052222667802      0.51534002001709
| 10>   Al -1.29480115210269      1.80190887760501      1.65627203170722
| 11>   O  -0.47247976505809      3.44575146580924      0.86262705303980
| 12>   O   0.13506320897087      1.59340319039571      2.63271331490470
| 13>   O  -2.54455046676465      2.86825347705433      2.27716692309223
| 14>   H  -3.48257710665052      2.67661577248835      2.12240784103200
| 15>   H   0.16156621058653      1.00152321256661      3.39922162012080
| 16>   H  -1.21757548538303      3.97445177136880      1.25817080464665
| 17>   H  -1.23264514820259     -0.02103901559875      0.14694804319510
| 18>   H   0.27980759657494      3.54306902163264      1.49024234824438
| 19> *
| 20> 
| 21>                          ****END OF INPUT****
================================================================================

                       ****************************
                       * Single Point Calculation *
                       ****************************

---------------------------------
CARTESIAN COORDINATES (ANGSTROEM)
---------------------------------
  O     -1.849328    0.630522    0.515340
  Al    -1.294801    1.801909    1.656272
  O     -0.472480    3.445751    0.862627
  O      0.135063    1.593403    2.632713
  O     -2.544550    2.868253    2.277167
  H     -3.482577    2.676616    2.122408
  H      0.161566    1.001523    3.399222
  H     -1.217575    3.974452    1.258171
  H     -1.232645   -0.021039    0.146948
  H      0.279808    3.543069    1.490242

----------------------------
CARTESIAN COORDINATES (A.U.)
----------------------------
  NO LB      ZA    FRAG     MASS         X           Y           Z
   0 O     8.0000    0    15.999   -3.494723    1.191514    0.973852
   1 Al   13.0000    0    26.982   -2.446820    3.405114    3.129901
   2 O     8.0000    0    15.999   -0.892857    6.511527    1.630129
   3 O     8.0000    0    15.999    0.255232    3.011096    4.975107
   4 O     8.0000    0    15.999   -4.808504    5.420214    4.303222
   5 H     1.0000    0     1.008   -6.581117    5.058071    4.010770
   6 H     1.0000    0     1.008    0.305316    1.892605    6.423598
   7 H     1.0000    0     1.008   -2.300884    7.510625    2.377598
   8 H     1.0000    0     1.008   -2.329362   -0.039758    0.277692
   9 H     1.0000    0     1.008    0.528760    6.695430    2.816150

--------------------------------
INTERNAL COORDINATES (ANGSTROEM)
--------------------------------
 O      0   0   0     0.000000000000     0.00000000     0.00000000
 Al     1   0   0     1.726665122859     0.00000000     0.00000000
 O      2   1   0     2.002074741499   115.27691593     0.00000000
 O      2   1   3     1.743967973387   123.51576486   253.10270809
 O      2   1   3     1.756267240605   114.64397532    97.82804989
 H      5   2   1     0.969829552255   120.78844364    12.06924812
 H      4   2   1     0.968792701879   122.57906012   284.86263359
 H      3   2   1     0.995563410829    88.34604599   115.89677629
 H      1   2   3     0.969815604889   120.17002931    84.51522107
 H      3   2   1     0.984534377215    98.18107229   221.25181396

---------------------------
INTERNAL COORDINATES (A.U.)
---------------------------
 O      0   0   0     0.000000000000     0.00000000     0.00000000
 Al     1   0   0     3.262924207197     0.00000000     0.00000000
 O      2   1   0     3.783372961075   115.27691593     0.00000000
 O      2   1   3     3.295621856031   123.51576486   253.10270809
 O      2   1   3     3.318864102720   114.64397532    97.82804989
 H      5   2   1     1.832712250345   120.78844364    12.06924812
 H      4   2   1     1.830752887094   122.57906012   284.86263359
 H      3   2   1     1.881342195418    88.34604599   115.89677629
 H      1   2   3     1.832685893643   120.17002931    84.51522107
 H      3   2   1     1.860500342368    98.18107229   221.25181396

---------------------
BASIS SET INFORMATION
---------------------
There are 3 groups of distinct atoms

 Group   1 Type O   : 7s4p1d contracted to 3s2p1d pattern {511/31/1}
 Group   2 Type Al  : 10s7p1d contracted to 4s3p1d pattern {5311/511/1}
 Group   3 Type H   : 4s1p contracted to 2s1p pattern {31/1}

Atom   0O    basis set group =>   1
Atom   1Al   basis set group =>   2
Atom   2O    basis set group =>   1
Atom   3O    basis set group =>   1
Atom   4O    basis set group =>   1
Atom   5H    basis set group =>   3
Atom   6H    basis set group =>   3
Atom   7H    basis set group =>   3
Atom   8H    basis set group =>   3
Atom   9H    basis set group =>   3
---------------------------------
AUXILIARY/J BASIS SET INFORMATION
---------------------------------
There are 3 groups of distinct atoms

 Group   1 Type O   : 12s5p4d2f1g contracted to 6s4p3d1f1g pattern {711111/2111/211/2/1}
 Group   2 Type Al  : 14s5p5d2f1g contracted to 8s4p3d1f1g pattern {71111111/2111/311/2/1}
 Group   3 Type H   : 5s2p1d contracted to 3s1p1d pattern {311/2/1}

Atom   0O    basis set group =>   1
Atom   1Al   basis set group =>   2
Atom   2O    basis set group =>   1
Atom   3O    basis set group =>   1
Atom   4O    basis set group =>   1
Atom   5H    basis set group =>   3
Atom   6H    basis set group =>   3
Atom   7H    basis set group =>   3
Atom   8H    basis set group =>   3
Atom   9H    basis set group =>   3


           ************************************************************
           *        Program running with 8 parallel MPI-processes     *
           *              working on a common directory               *
           ************************************************************
------------------------------------------------------------------------------
                           ORCA GTO INTEGRAL CALCULATION
                           -- RI-GTO INTEGRALS CHOSEN --
------------------------------------------------------------------------------

                         BASIS SET STATISTICS AND STARTUP INFO

Gaussian basis set:
 # of primitive gaussian shells          ...   91
 # of primitive gaussian functions       ...  167
 # of contracted shells                  ...   47
 # of contracted basis functions         ...   99
 Highest angular momentum                ...    2
 Maximum contraction depth               ...    5
Auxiliary gaussian basis set:
 # of primitive gaussian shells          ...  163
 # of primitive gaussian functions       ...  437
 # of contracted shells                  ...  102
 # of contracted aux-basis functions     ...  302
 Highest angular momentum                ...    4
 Maximum contraction depth               ...    7
Ratio of auxiliary to basis functions    ...  3.05
Integral package used                  ... LIBINT
 One Electron integrals                  ... done
 Ordering auxiliary basis shells         ... done
 Integral threshhold             Thresh  ...  2.500e-11
 Primitive cut-off               TCut    ...  2.500e-12
 Pre-screening matrix                    ... done
 Shell pair data                         ... 
 Ordering of the shell pairs             ... done (   0.000 sec) 1096 of 1128 pairs
 Determination of significant pairs      ... done (   0.000 sec)
 Creation of shell pair data             ... done (   0.000 sec)
 Storage of shell pair data              ... done (   0.099 sec)
 Shell pair data done in (   0.099 sec)
 Computing two index integrals           ... done
 Cholesky decomposition of the V-matrix  ... done


Timings:
 Total evaluation time                   ...   0.251 sec (  0.004 min)
 One electron matrix time                ...   0.021 sec (  0.000 min) =  8.2%
 Schwartz matrix evaluation time         ...   0.098 sec (  0.002 min) = 39.1%
 Two index repulsion integral time       ...   0.002 sec (  0.000 min) =  0.8%
 Cholesky decomposition of V             ...   0.015 sec (  0.000 min) =  5.8%
 Three index repulsion integral time     ...   0.000 sec (  0.000 min) =  0.0%



           ************************************************************
           *        Program running with 8 parallel MPI-processes     *
           *              working on a common directory               *
           ************************************************************
-------------------------------------------------------------------------------
                                 ORCA SCF
-------------------------------------------------------------------------------

------------
SCF SETTINGS
------------
Hamiltonian:
 Density Functional     Method          .... DFT(GTOs)
 Exchange Functional    Exchange        .... B88
   X-Alpha parameter    XAlpha          ....  0.666667
   Becke's b parameter  XBeta           ....  0.004200
 Correlation Functional Correlation     .... P86
 LDA part of GGA corr.  LDAOpt          .... PW91-LDA
 Gradients option       PostSCFGGA      .... off
   Density functional embedding theory  .... OFF
 RI-approximation to the Coulomb term is turned on
   Number of auxiliary basis functions  .... 302


General Settings:
 Integral files         IntName         .... alo3h3.h2o-orca.freq-bp86.def2svp
 Hartree-Fock type      HFTyp           .... RHF
 Total Charge           Charge          ....    0
 Multiplicity           Mult            ....    1
 Number of Electrons    NEL             ....   50
 Basis Dimension        Dim             ....   99
 Nuclear Repulsion      ENuc            ....    250.9529549106 Eh

Convergence Acceleration:
 DIIS                   CNVDIIS         .... on
   Start iteration      DIISMaxIt       ....    12
   Startup error        DIISStart       ....  0.200000
   # of expansion vecs  DIISMaxEq       ....     5
   Bias factor          DIISBfac        ....   1.050
   Max. coefficient     DIISMaxC        ....  10.000
 Newton-Raphson         CNVNR           .... off
 SOSCF                  CNVSOSCF        .... on
   Start iteration      SOSCFMaxIt      ....   150
   Startup grad/error   SOSCFStart      ....  0.003300
 Level Shifting         CNVShift        .... on
   Level shift para.    LevelShift      ....    0.2500
   Turn off err/grad.   ShiftErr        ....    0.0010
 Zerner damping         CNVZerner       .... off
 Static damping         CNVDamp         .... on
   Fraction old density DampFac         ....    0.7000
   Max. Damping (<1)    DampMax         ....    0.9800
   Min. Damping (>=0)   DampMin         ....    0.0000
   Turn off err/grad.   DampErr         ....    0.1000
 Fernandez-Rico         CNVRico         .... off

SCF Procedure:
 Maximum # iterations   MaxIter         ....   125
 SCF integral mode      SCFMode         .... Direct
   Integral package                     .... LIBINT
 Reset frequency        DirectResetFreq ....    20
 Integral Threshold     Thresh          ....  2.500e-11 Eh
 Primitive CutOff       TCut            ....  2.500e-12 Eh

Convergence Tolerance:
 Convergence Check Mode ConvCheckMode   .... Total+1el-Energy
 Convergence forced     ConvForced      .... 0
 Energy Change          TolE            ....  1.000e-08 Eh
 1-El. energy change                    ....  1.000e-05 Eh
 Orbital Gradient       TolG            ....  1.000e-05
 Orbital Rotation angle TolX            ....  1.000e-05
 DIIS Error             TolErr          ....  5.000e-07


Diagonalization of the overlap matrix:
Smallest eigenvalue                        ... 2.306e-02
Time for diagonalization                   ...    0.013 sec
Threshold for overlap eigenvalues          ... 1.000e-08
Number of eigenvalues below threshold      ... 0
Time for construction of square roots      ...    0.001 sec
Total time needed                          ...    0.014 sec

-------------------
DFT GRID GENERATION
-------------------

General Integration Accuracy     IntAcc      ...  4.670
Radial Grid Type                 RadialGrid  ... Gauss-Chebyshev
Angular Grid (max. acc.)         AngularGrid ... Lebedev-302
Angular grid pruning method      GridPruning ... 3 (G Style)
Weight generation scheme         WeightScheme... Becke
Basis function cutoff            BFCut       ...    1.0000e-11
Integration weight cutoff        WCut        ...    1.0000e-14
Grids for H and He will be reduced by one unit

# of grid points (after initial pruning)     ...  48664 (   0.0 sec)
# of grid points (after weights+screening)   ...  46272 (   0.0 sec)
nearest neighbour list constructed           ...    0.0 sec
Grid point re-assignment to atoms done       ...    0.0 sec
Grid point division into batches done        ...    0.2 sec
Reduced shell lists constructed in    0.2 sec

Total number of grid points                  ...    46272
Total number of batches                      ...      729
Average number of points per batch           ...       63
Average number of grid points per atom       ...     4627
Average number of shells per batch           ...    34.38 (73.14%)
Average number of basis functions per batch  ...    70.57 (71.28%)
Average number of large shells per batch     ...    26.46 (76.98%)
Average number of large basis fcns per batch ...    53.69 (76.08%)
Maximum spatial batch extension              ...  16.78, 16.78, 17.06 au
Average spatial batch extension              ...   0.26,  0.26,  0.27 au

Time for grid setup =    0.421 sec

------------------------------
INITIAL GUESS: MODEL POTENTIAL
------------------------------
Loading Hartree-Fock densities                     ... done
Calculating cut-offs                               ... done
Setting up the integral package                    ... done
Initializing the effective Hamiltonian             ... done
Starting the Coulomb interaction                   ... done (   0.0 sec)
Reading the grid                                   ... done
Mapping shells                                     ... done
Starting the XC term evaluation                    ... done (   0.1 sec)
  promolecular density results
     # of electrons  =     49.997512703
     EX              =    -52.418498349
     EC              =     -1.899802734
     EX+EC           =    -54.318301083
Transforming the Hamiltonian                       ... done (   0.0 sec)
Diagonalizing the Hamiltonian                      ... done (   0.0 sec)
Back transforming the eigenvectors                 ... done (   0.0 sec)
Now organizing SCF variables                       ... done
                      ------------------
                      INITIAL GUESS DONE (   0.7 sec)
                      ------------------
--------------
SCF ITERATIONS
--------------
ITER       Energy         Delta-E        Max-DP      RMS-DP      [F,P]     Damp
               ***  Starting incremental Fock matrix formation  ***
  0   -545.8578587438   0.000000000000 0.10885846  0.00536178  0.3356292 0.7000
  1   -546.0606552303  -0.202796486485 0.05997375  0.00295869  0.1120042 0.7000
                               ***Turning on DIIS***
  2   -546.1128472348  -0.052192004507 0.04826413  0.00284600  0.0162417 0.0000
  3   -546.2277296901  -0.114882455301 0.04388346  0.00168872  0.0627401 0.0000
  4   -546.2431553876  -0.015425697504 0.01046172  0.00050464  0.0170845 0.0000
  5   -546.2439033396  -0.000747952033 0.00367212  0.00017026  0.0034538 0.0000
                      *** Initiating the SOSCF procedure ***
                           *** Shutting down DIIS ***
                      *** Re-Reading the Fockian *** 
                      *** Removing any level shift *** 
ITER      Energy       Delta-E        Grad      Rot      Max-DP    RMS-DP
  6   -546.24396414  -0.0000608044  0.000371  0.000371  0.001511  0.000079
               *** Restarting incremental Fock matrix formation ***
  7   -546.24397133  -0.0000071904  0.000096  0.000285  0.001072  0.000027
  8   -546.24397043   0.0000009009  0.000212  0.000180  0.000512  0.000016
  9   -546.24397175  -0.0000013127  0.000017  0.000025  0.000172  0.000004
 10   -546.24397174   0.0000000034  0.000027  0.000015  0.000080  0.000002
 11   -546.24397176  -0.0000000176  0.000006  0.000009  0.000044  0.000001
 12   -546.24397176   0.0000000003  0.000006  0.000005  0.000029  0.000001
                  ***Gradient check signals convergence***
              ***Rediagonalizing the Fockian in SOSCF/NRSCF***

               *****************************************************
               *                     SUCCESS                       *
               *           SCF CONVERGED AFTER  13 CYCLES          *
               *****************************************************


----------------
TOTAL SCF ENERGY
----------------

Total Energy       :         -546.24397176 Eh          -14864.05415 eV

Components:
Nuclear Repulsion  :          250.95295491 Eh            6828.77707 eV
Electronic Energy  :         -797.19692667 Eh          -21692.83122 eV
One Electron Energy:        -1256.01010934 Eh          -34177.77264 eV
Two Electron Energy:          458.81318267 Eh           12484.94142 eV

Virial components:
Potential Energy   :        -1089.01792537 Eh          -29633.68430 eV
Kinetic Energy     :          542.77395360 Eh           14769.63015 eV
Virial Ratio       :            2.00639312


DFT components:
N(Alpha)           :       24.999981726541 electrons
N(Beta)            :       24.999981726541 electrons
N(Total)           :       49.999963453082 electrons
E(X)               :      -53.116921053760 Eh       
E(C)               :       -1.929366468737 Eh       
E(XC)              :      -55.046287522497 Eh       
DFET-embed. en.    :        0.000000000000 Eh       

---------------
SCF CONVERGENCE
---------------

  Last Energy change         ...   -3.9591e-09  Tolerance :   1.0000e-08
  Last MAX-Density change    ...    7.5563e-06  Tolerance :   1.0000e-07
  Last RMS-Density change    ...    2.8012e-07  Tolerance :   5.0000e-09
  Last Orbital Gradient      ...    1.7412e-06  Tolerance :   1.0000e-05
  Last Orbital Rotation      ...    2.4923e-06  Tolerance :   1.0000e-05

             **** THE GBW FILE WAS UPDATED (alo3h3.h2o-orca.freq-bp86.def2svp.gbw) ****
             **** DENSITY FILE WAS UPDATED (alo3h3.h2o-orca.freq-bp86.def2svp.scfp) ****
             **** ENERGY FILE WAS UPDATED (alo3h3.h2o-orca.freq-bp86.def2svp.en.tmp) ****
             **** THE GBW FILE WAS UPDATED (alo3h3.h2o-orca.freq-bp86.def2svp.gbw) ****
             **** DENSITY FILE WAS UPDATED (alo3h3.h2o-orca.freq-bp86.def2svp.scfp) ****
----------------
ORBITAL ENERGIES
----------------

  NO   OCC          E(Eh)            E(eV) 
   0   2.0000     -55.405963     -1507.6729 
   1   2.0000     -18.845930      -512.8238 
   2   2.0000     -18.740734      -509.9613 
   3   2.0000     -18.740344      -509.9507 
   4   2.0000     -18.736219      -509.8384 
   5   2.0000      -3.918926      -106.6394 
   6   2.0000      -2.527880       -68.7871 
   7   2.0000      -2.523329       -68.6633 
   8   2.0000      -2.523302       -68.6625 
   9   2.0000      -0.976528       -26.5727 
  10   2.0000      -0.849715       -23.1219 
  11   2.0000      -0.841632       -22.9020 
  12   2.0000      -0.837948       -22.8017 
  13   2.0000      -0.535814       -14.5802 
  14   2.0000      -0.448651       -12.2084 
  15   2.0000      -0.416283       -11.3276 
  16   2.0000      -0.406972       -11.0743 
  17   2.0000      -0.396555       -10.7908 
  18   2.0000      -0.340195        -9.2572 
  19   2.0000      -0.284308        -7.7364 
  20   2.0000      -0.267513        -7.2794 
  21   2.0000      -0.259003        -7.0478 
  22   2.0000      -0.243365        -6.6223 
  23   2.0000      -0.240078        -6.5328 
  24   2.0000      -0.229242        -6.2380 
  25   0.0000      -0.016174        -0.4401 
  26   0.0000       0.036321         0.9883 
  27   0.0000       0.059206         1.6111 
  28   0.0000       0.065242         1.7753 
  29   0.0000       0.099112         2.6970 
  30   0.0000       0.103971         2.8292 
  31   0.0000       0.141176         3.8416 
  32   0.0000       0.151058         4.1105 
  33   0.0000       0.182743         4.9727 
  34   0.0000       0.212881         5.7928 
  35   0.0000       0.321526         8.7492 
  36   0.0000       0.366124         9.9627 
  37   0.0000       0.385979        10.5030 
  38   0.0000       0.416075        11.3220 
  39   0.0000       0.487652        13.2697 
  40   0.0000       0.507408        13.8073 
  41   0.0000       0.524194        14.2641 
  42   0.0000       0.606729        16.5099 
  43   0.0000       0.615005        16.7351 
  44   0.0000       0.644946        17.5499 
  45   0.0000       0.683251        18.5922 
  46   0.0000       0.767655        20.8890 
  47   0.0000       0.775984        21.1156 
  48   0.0000       0.865248        23.5446 
  49   0.0000       0.883928        24.0529 
  50   0.0000       0.897349        24.4181 
  51   0.0000       0.937189        25.5022 
  52   0.0000       0.957700        26.0603 
  53   0.0000       0.963489        26.2179 
  54   0.0000       0.996759        27.1232 
  55   0.0000       1.021273        27.7903 
  56   0.0000       1.031636        28.0722 
  57   0.0000       1.073449        29.2100 
  58   0.0000       1.107110        30.1260 
  59   0.0000       1.151712        31.3397 
  60   0.0000       1.179060        32.0838 
  61   0.0000       1.229505        33.4565 
  62   0.0000       1.281462        34.8704 
  63   0.0000       1.307861        35.5887 
  64   0.0000       1.385872        37.7115 
  65   0.0000       1.433356        39.0036 
  66   0.0000       1.458331        39.6832 
  67   0.0000       1.492266        40.6066 
  68   0.0000       1.568499        42.6810 
  69   0.0000       1.636328        44.5267 
  70   0.0000       1.661888        45.2223 
  71   0.0000       1.682687        45.7882 
  72   0.0000       1.705351        46.4050 
  73   0.0000       1.792213        48.7686 
  74   0.0000       2.045114        55.6504 
  75   0.0000       2.136579        58.1393 
  76   0.0000       2.151428        58.5433 
  77   0.0000       2.161623        58.8208 
  78   0.0000       2.177695        59.2581 
  79   0.0000       2.596369        70.6508 
  80   0.0000       2.620675        71.3122 
  81   0.0000       2.692075        73.2551 
  82   0.0000       2.738326        74.5136 
  83   0.0000       2.780296        75.6557 
  84   0.0000       2.789292        75.9005 
  85   0.0000       2.811261        76.4983 
  86   0.0000       2.829129        76.9845 
  87   0.0000       2.890023        78.6415 
  88   0.0000       2.901725        78.9599 
  89   0.0000       2.906934        79.1017 
  90   0.0000       2.962706        80.6193 
  91   0.0000       2.991105        81.3921 
  92   0.0000       3.084761        83.9406 
  93   0.0000       3.140089        85.4462 
  94   0.0000       3.332655        90.6862 
  95   0.0000       3.604925        98.0950 
  96   0.0000       3.625511        98.6552 
  97   0.0000       3.631945        98.8302 
  98   0.0000       3.651595        99.3649 

                    ********************************
                    * MULLIKEN POPULATION ANALYSIS *
                    ********************************

-----------------------
MULLIKEN ATOMIC CHARGES
-----------------------
   0 O :   -0.440595
   1 Al:    0.633694
   2 O :   -0.202986
   3 O :   -0.480334
   4 O :   -0.488954
   5 H :    0.190527
   6 H :    0.187818
   7 H :    0.200790
   8 H :    0.185307
   9 H :    0.214734
Sum of atomic charges:   -0.0000000

--------------------------------
MULLIKEN REDUCED ORBITAL CHARGES
--------------------------------
  0 O s       :     3.713173  s :     3.713173
      pz      :     1.642355  p :     4.721601
      px      :     1.595139
      py      :     1.484107
      dz2     :     0.000752  d :     0.005822
      dxz     :     0.001320
      dyz     :     0.000613
      dx2y2   :     0.000611
      dxy     :     0.002526
  1 Als       :     4.605079  s :     4.605079
      pz      :     2.431608  p :     7.309600
      px      :     2.418490
      py      :     2.459502
      dz2     :     0.076658  d :     0.451627
      dxz     :     0.097373
      dyz     :     0.083223
      dx2y2   :     0.087910
      dxy     :     0.106462
  2 O s       :     3.666403  s :     3.666403
      pz      :     1.631589  p :     4.527676
      px      :     1.282047
      py      :     1.614040
      dz2     :     0.001290  d :     0.008908
      dxz     :     0.004443
      dyz     :     0.001939
      dx2y2   :     0.000197
      dxy     :     0.001039
  3 O s       :     3.714999  s :     3.714999
      pz      :     1.432410  p :     4.760067
      px      :     1.709523
      py      :     1.618134
      dz2     :     0.000613  d :     0.005268
      dxz     :     0.000687
      dyz     :     0.002212
      dx2y2   :     0.001196
      dxy     :     0.000559
  4 O s       :     3.720908  s :     3.720908
      pz      :     1.802263  p :     4.762703
      px      :     1.238494
      py      :     1.721946
      dz2     :     0.000991  d :     0.005343
      dxz     :     0.000747
      dyz     :     0.000806
      dx2y2   :     0.001625
      dxy     :     0.001173
  5 H s       :     0.742881  s :     0.742881
      pz      :     0.018440  p :     0.066592
      px      :     0.030036
      py      :     0.018116
  6 H s       :     0.744602  s :     0.744602
      pz      :     0.026344  p :     0.067580
      px      :     0.018026
      py      :     0.023210
  7 H s       :     0.728076  s :     0.728076
      pz      :     0.018808  p :     0.071134
      px      :     0.032204
      py      :     0.020122
  8 H s       :     0.746534  s :     0.746534
      pz      :     0.019934  p :     0.068159
      px      :     0.024324
      py      :     0.023900
  9 H s       :     0.716064  s :     0.716064
      pz      :     0.024272  p :     0.069202
      px      :     0.029455
      py      :     0.015475


                     *******************************
                     * LOEWDIN POPULATION ANALYSIS *
                     *******************************

----------------------
LOEWDIN ATOMIC CHARGES
----------------------
   0 O :   -0.239322
   1 Al:    0.251910
   2 O :    0.033200
   3 O :   -0.265218
   4 O :   -0.266508
   5 H :    0.084985
   6 H :    0.082462
   7 H :    0.111536
   8 H :    0.083594
   9 H :    0.123360

-------------------------------
LOEWDIN REDUCED ORBITAL CHARGES
-------------------------------
  0 O s       :     3.457805  s :     3.457805
      pz      :     1.639448  p :     4.771432
      px      :     1.616216
      py      :     1.515768
      dz2     :     0.001253  d :     0.010085
      dxz     :     0.002010
      dyz     :     0.001251
      dx2y2   :     0.000308
      dxy     :     0.005263
  1 Als       :     4.538359  s :     4.538359
      pz      :     2.481736  p :     7.435410
      px      :     2.476281
      py      :     2.477393
      dz2     :     0.122090  d :     0.774320
      dxz     :     0.174198
      dyz     :     0.151732
      dx2y2   :     0.137755
      dxy     :     0.188545
  2 O s       :     3.397991  s :     3.397991
      pz      :     1.652174  p :     4.552353
      px      :     1.316204
      py      :     1.583974
      dz2     :     0.001016  d :     0.016456
      dxz     :     0.008662
      dyz     :     0.002033
      dx2y2   :     0.001548
      dxy     :     0.003197
  3 O s       :     3.457534  s :     3.457534
      pz      :     1.479898  p :     4.798198
      px      :     1.694174
      py      :     1.624127
      dz2     :     0.001346  d :     0.009487
      dxz     :     0.000760
      dyz     :     0.005188
      dx2y2   :     0.001814
      dxy     :     0.000379
  4 O s       :     3.461983  s :     3.461983
      pz      :     1.763701  p :     4.794933
      px      :     1.326882
      py      :     1.704349
      dz2     :     0.001590  d :     0.009592
      dxz     :     0.001307
      dyz     :     0.000702
      dx2y2   :     0.003809
      dxy     :     0.002184
  5 H s       :     0.732889  s :     0.732889
      pz      :     0.049560  p :     0.182125
      px      :     0.085059
      py      :     0.047506
  6 H s       :     0.734988  s :     0.734988
      pz      :     0.073117  p :     0.182550
      px      :     0.044854
      py      :     0.064579
  7 H s       :     0.710683  s :     0.710683
      pz      :     0.049698  p :     0.177781
      px      :     0.071752
      py      :     0.056331
  8 H s       :     0.733888  s :     0.733888
      pz      :     0.051559  p :     0.182518
      px      :     0.066995
      py      :     0.063964
  9 H s       :     0.706045  s :     0.706045
      pz      :     0.066482  p :     0.170595
      px      :     0.065347
      py      :     0.038766


                      *****************************
                      * MAYER POPULATION ANALYSIS *
                      *****************************

  NA   - Mulliken gross atomic population
  ZA   - Total nuclear charge
  QA   - Mulliken gross atomic charge
  VA   - Mayer's total valence
  BVA  - Mayer's bonded valence
  FA   - Mayer's free valence

  ATOM       NA         ZA         QA         VA         BVA        FA
  0 O      8.4406     8.0000    -0.4406     2.1474     2.1474    -0.0000
  1 Al    12.3663    13.0000     0.6337     3.7969     3.7969    -0.0000
  2 O      8.2030     8.0000    -0.2030     2.3209     2.3209     0.0000
  3 O      8.4803     8.0000    -0.4803     2.1007     2.1007    -0.0000
  4 O      8.4890     8.0000    -0.4890     2.0925     2.0925     0.0000
  5 H      0.8095     1.0000     0.1905     0.9903     0.9903     0.0000
  6 H      0.8122     1.0000     0.1878     0.9879     0.9879    -0.0000
  7 H      0.7992     1.0000     0.2008     1.0391     1.0391     0.0000
  8 H      0.8147     1.0000     0.1853     0.9894     0.9894    -0.0000
  9 H      0.7853     1.0000     0.2147     1.0046     1.0046    -0.0000

  Mayer bond orders larger than 0.100000
B(  0-O ,  1-Al) :   1.1655 B(  0-O ,  8-H ) :   0.9637 B(  1-Al,  2-O ) :   0.4457 
B(  1-Al,  3-O ) :   1.0867 B(  1-Al,  4-O ) :   0.9957 B(  2-O ,  7-H ) :   0.9089 
B(  2-O ,  9-H ) :   0.9438 B(  3-O ,  6-H ) :   0.9627 B(  4-O ,  5-H ) :   0.9611 
B(  4-O ,  7-H ) :   0.1125 

-------
TIMINGS
-------

Total SCF time: 0 days 0 hours 0 min 4 sec 

Total time                  ....       4.163 sec
Sum of individual times     ....       3.926 sec  ( 94.3%)

Fock matrix formation       ....       3.226 sec  ( 77.5%)
  Split-RI-J                ....       1.952 sec  ( 60.5% of F)
  XC integration            ....       1.083 sec  ( 33.6% of F)
    Basis function eval.    ....       0.202 sec  ( 18.6% of XC)
    Density eval.           ....       0.077 sec  (  7.1% of XC)
    XC-Functional eval.     ....       0.082 sec  (  7.5% of XC)
    XC-Potential eval.      ....       0.084 sec  (  7.7% of XC)
Diagonalization             ....       0.009 sec  (  0.2%)
Density matrix formation    ....       0.004 sec  (  0.1%)
Population analysis         ....       0.013 sec  (  0.3%)
Initial guess               ....       0.246 sec  (  5.9%)
Orbital Transformation      ....       0.000 sec  (  0.0%)
Orbital Orthonormalization  ....       0.000 sec  (  0.0%)
DIIS solution               ....       0.003 sec  (  0.1%)
SOSCF solution              ....       0.005 sec  (  0.1%)
Grid generation             ....       0.421 sec  ( 10.1%)


-------------------------------------------------------------------------------
                          DFT DISPERSION CORRECTION                            
                                                                               
                              DFTD3 V3.1  Rev 1                                
                          USING Becke-Johnson damping                          
-------------------------------------------------------------------------------
The BP86 functional is recognized
Active option DFTDOPT                   ...         4   

molecular C6(AA) [au] = 1109.871988 


            DFT-D V3
 parameters
 s6 scaling factor         :     1.0000 
 a1 scaling factor         :     0.3946 
 s8 scaling factor         :     3.2822 
 a2 scaling factor         :     4.8516 
 ad hoc parameters k1-k3   :    16.0000     1.3333    -4.0000 

 Edisp/kcal,au: -5.981981991059  -0.009532894084 
 E6   /kcal   :  -2.102506963 
 E8   /kcal   :  -3.879475028 
 % E8         :  64.852669801 

-------------------------   ----------------
Dispersion correction           -0.009532894
-------------------------   ----------------


-------------------------   --------------------
FINAL SINGLE POINT ENERGY      -546.253504658102
-------------------------   --------------------


                            ***************************************
                            *     ORCA property calculations      *
                            ***************************************

                                    ---------------------
                                    Active property flags
                                    ---------------------
   (+) Dipole Moment


------------------------------------------------------------------------------
                       ORCA ELECTRIC PROPERTIES CALCULATION
------------------------------------------------------------------------------

Dipole Moment Calculation                       ... on
Quadrupole Moment Calculation                   ... off
Polarizability Calculation                      ... off
GBWName                                         ... alo3h3.h2o-orca.freq-bp86.def2svp.gbw
Electron density file                           ... alo3h3.h2o-orca.freq-bp86.def2svp.scfp
The origin for moment calculation is the CENTER OF MASS  = (-2.286291,  3.866943  3.026402)

-------------
DIPOLE MOMENT
-------------
                                X             Y             Z
Electronic contribution:     -0.24651      -0.86129      -0.14360
Nuclear contribution   :      0.60179       1.11109       0.33287
                        -----------------------------------------
Total Dipole Moment    :      0.35528       0.24980       0.18928
                        -----------------------------------------
Magnitude (a.u.)       :      0.47376
Magnitude (Debye)      :      1.20421



--------------------
Rotational spectrum 
--------------------
 
Rotational constants in cm-1:     0.125806     0.113298     0.094131 
Rotational constants in MHz :  3771.565951  3396.574206  2821.981799 

 Dipole components along the rotational axes: 
x,y,z [a.u.] :     0.432179     0.193702     0.012318 
x,y,z [Debye]:     1.098511     0.492350     0.031309 

 


           ************************************************************
           *        Program running with 8 parallel MPI-processes     *
           *              working on a common directory               *
           ************************************************************

-------------------------------------------------------------------------------
                               ORCA SCF HESSIAN
-------------------------------------------------------------------------------

Hessian of the Kohn-Sham DFT energy:
Kohn-Sham wavefunction type                      ... RKS
Hartree-Fock exchange scaling                    ...    0.000
Number of operators                              ...    1
Number of atoms                                  ...   10
Basis set dimensions                             ...   99
Integral neglect threshold                       ... 2.5e-11
Integral primitive cutoff                        ... 2.5e-12

Setting up DFT Hessian calculations              ... 
Electron density on the grid                     ... found on disk
Building xc-kernel on the grid                   ... done   (      0.0 sec)
                                                     done   (      0.1 sec)

Nuclear repulsion Hessian                        ... done   (      0.0 sec)

----------------------------------------------
Forming right-hand sides of CP-SCF equations     ...
----------------------------------------------
One electron integral derivatives                ... done   (      0.2 sec)
Transforming the overlap derivative matrices     ... done   (      0.1 sec)
Making the Q(x) pseudodensities                  ... done   (      0.0 sec)
Adding the E*S(x)*S(y) terms to the Hessian      ... done   (      0.0 sec)
Calculating energy weighted overlap derivatives  ... done   (      0.0 sec)
Two electron integral derivatives (RI)           ... done   (      0.9 sec)
Exchange-correlation integral derivatives        ... done   (      2.4 sec)
tr(F(y)Q(x)) contribution to the Hessian         ... done   (      0.0 sec)
Response fock operator R(S(x)) (RI)              ... done   (      0.8 sec)
XC Response fock operator R(S(x))                ... done   (      0.9 sec)
tr(F(y)S(x)) contribution to the Hessian         ... done   (      0.0 sec)
Transforming and finalizing RHSs                 ... done   (      0.0 sec)

----------------------------------------------
Solving the CP-SCF equations (RI)                ...
----------------------------------------------
     CP-SCF ITERATION   0: 
     CP-SCF ITERATION   1:      0.001200011394
     CP-SCF ITERATION   2:      0.000075191697
     CP-SCF ITERATION   3:      0.000003609544
     CP-SCF ITERATION   4:      0.000000357598
     CP-SCF ITERATION   5:      0.000000027976
     CP-SCF ITERATION   6:      0.000000005434

                                                 ... done   (     13.9 sec)
Forming perturbed density Hessian contributions  ... done   (      0.0 sec)
Making the perturbed densities                   ... done   (      0.0 sec)
2nd integral derivative contribs (RI)            ... done   (      0.8 sec)
Exchange-correlation Hessian                     ... done   (      3.2 sec)
Dispersion correction in the Hessian             ... done   (      0.3 sec)
Dipol derivatives                                ... done   (      0.5 sec)

Total SCF Hessian time: 0 days 0 hours 0 min 25 sec 

Writing the Hessian file to the disk             ... done


Maximum memory used throughout the entire calculation: 133.6 MB

-----------------------
VIBRATIONAL FREQUENCIES
-----------------------

Scaling factor for frequencies =  1.000000000  (already applied!)

   0:         0.00 cm**-1
   1:         0.00 cm**-1
   2:         0.00 cm**-1
   3:         0.00 cm**-1
   4:         0.00 cm**-1
   5:         0.00 cm**-1
   6:        66.35 cm**-1
   7:       141.60 cm**-1
   8:       195.61 cm**-1
   9:       217.69 cm**-1
  10:       233.53 cm**-1
  11:       269.43 cm**-1
  12:       291.43 cm**-1
  13:       295.18 cm**-1
  14:       426.16 cm**-1
  15:       445.55 cm**-1
  16:       588.43 cm**-1
  17:       612.29 cm**-1
  18:       638.17 cm**-1
  19:       673.00 cm**-1
  20:       679.99 cm**-1
  21:       762.58 cm**-1
  22:       881.75 cm**-1
  23:       890.37 cm**-1
  24:      1561.54 cm**-1
  25:      3414.88 cm**-1
  26:      3617.40 cm**-1
  27:      3806.79 cm**-1
  28:      3807.27 cm**-1
  29:      3821.08 cm**-1


------------
NORMAL MODES
------------

These modes are the Cartesian displacements weighted by the diagonal matrix
M(i,i)=1/sqrt(m[i]) where m[i] is the mass of the displaced atom
Thus, these vectors are normalized but *not* orthogonal

                  0          1          2          3          4          5    
      0       0.000000   0.000000   0.000000   0.000000   0.000000   0.000000
      1       0.000000   0.000000   0.000000   0.000000   0.000000   0.000000
      2       0.000000   0.000000   0.000000   0.000000   0.000000   0.000000
      3       0.000000   0.000000   0.000000   0.000000   0.000000   0.000000
      4       0.000000   0.000000   0.000000   0.000000   0.000000   0.000000
      5       0.000000   0.000000   0.000000   0.000000   0.000000   0.000000
      6       0.000000   0.000000   0.000000   0.000000   0.000000   0.000000
      7       0.000000   0.000000   0.000000   0.000000   0.000000   0.000000
      8       0.000000   0.000000   0.000000   0.000000   0.000000   0.000000
      9       0.000000   0.000000   0.000000   0.000000   0.000000   0.000000
     10       0.000000   0.000000   0.000000   0.000000   0.000000   0.000000
     11       0.000000   0.000000   0.000000   0.000000   0.000000   0.000000
     12       0.000000   0.000000   0.000000   0.000000   0.000000   0.000000
     13       0.000000   0.000000   0.000000   0.000000   0.000000   0.000000
     14       0.000000   0.000000   0.000000   0.000000   0.000000   0.000000
     15       0.000000   0.000000   0.000000   0.000000   0.000000   0.000000
     16       0.000000   0.000000   0.000000   0.000000   0.000000   0.000000
     17       0.000000   0.000000   0.000000   0.000000   0.000000   0.000000
     18       0.000000   0.000000   0.000000   0.000000   0.000000   0.000000
     19       0.000000   0.000000   0.000000   0.000000   0.000000   0.000000
     20       0.000000   0.000000   0.000000   0.000000   0.000000   0.000000
     21       0.000000   0.000000   0.000000   0.000000   0.000000   0.000000
     22       0.000000   0.000000   0.000000   0.000000   0.000000   0.000000
     23       0.000000   0.000000   0.000000   0.000000   0.000000   0.000000
     24       0.000000   0.000000   0.000000   0.000000   0.000000   0.000000
     25       0.000000   0.000000   0.000000   0.000000   0.000000   0.000000
     26       0.000000   0.000000   0.000000   0.000000   0.000000   0.000000
     27       0.000000   0.000000   0.000000   0.000000   0.000000   0.000000
     28       0.000000   0.000000   0.000000   0.000000   0.000000   0.000000
     29       0.000000   0.000000   0.000000   0.000000   0.000000   0.000000
                  6          7          8          9         10         11    
      0      -0.002801  -0.070210  -0.057825  -0.173677   0.001499  -0.035455
      1      -0.020105  -0.157153   0.048656   0.038443   0.150225   0.100718
      2      -0.015838   0.141835  -0.002424   0.027274   0.077523  -0.103024
      3      -0.100516  -0.002323   0.026298   0.079234   0.026723   0.002849
      4       0.025267   0.001787  -0.015710  -0.035272   0.092683  -0.067351
      5      -0.016501  -0.050322   0.024090  -0.030625   0.120192   0.049332
      6       0.214161   0.034810   0.016583   0.028732   0.045712  -0.055278
      7      -0.086027   0.110045  -0.049739   0.056362  -0.029300  -0.132496
      8       0.038147   0.206800  -0.044914   0.041002  -0.051552   0.073306
      9       0.013217   0.041706  -0.010288   0.054120   0.126643   0.068775
     10       0.171652   0.025803   0.092077   0.044344  -0.172939   0.100885
     11      -0.107502  -0.103299   0.084176   0.031071  -0.076810   0.019126
     12      -0.099206  -0.018223  -0.015126   0.000343  -0.222216   0.030958
     13      -0.103015   0.057758  -0.052197  -0.099230  -0.080971   0.068358
     14       0.097263  -0.165167   0.007017  -0.052581  -0.130703  -0.128071
     15      -0.086815  -0.033405   0.022660   0.059484  -0.130733  -0.045188
     16      -0.129555  -0.011666   0.024689  -0.065819  -0.570418  -0.248624
     17       0.059661   0.024709  -0.326848  -0.474748  -0.087317   0.761035
     18       0.144547   0.368354   0.294338  -0.195778   0.084140   0.299458
     19       0.347734  -0.516652  -0.530777   0.523249  -0.187217   0.140350
     20       0.022369  -0.535073  -0.408856   0.412243  -0.085211   0.039017
     21       0.457832  -0.015945   0.019871  -0.100327   0.104752  -0.144639
     22       0.264664   0.022808  -0.047770  -0.116332   0.243067  -0.120992
     23      -0.054962   0.240973  -0.035896   0.055604  -0.366988  -0.108095
     24       0.042297  -0.056572  -0.046300  -0.378555  -0.085293  -0.161554
     25       0.015667  -0.098136   0.313073  -0.095256  -0.083483  -0.067607
     26      -0.003034   0.059390  -0.448321  -0.076146   0.346550  -0.014052
     27       0.142843  -0.011095   0.063444  -0.069627   0.079418  -0.167182
     28      -0.579713  -0.022775   0.045535   0.064709   0.227860  -0.082136
     29       0.226067   0.284573  -0.120981   0.160557  -0.142871   0.202438
                 12         13         14         15         16         17    
      0      -0.015860   0.045725  -0.025532  -0.008424   0.081666  -0.080400
      1       0.027620   0.038075  -0.038319   0.000205   0.067911  -0.019175
      2      -0.043186  -0.051278  -0.094151  -0.007823   0.093101  -0.032995
      3       0.020130  -0.029458  -0.110233  -0.011934   0.013753   0.022900
      4       0.007883  -0.036288  -0.195258  -0.030710   0.010036   0.018613
      5      -0.037771   0.055517   0.161130   0.029719  -0.005732  -0.006241
      6       0.009469  -0.049657   0.177192  -0.022998  -0.016434  -0.006038
      7       0.020220  -0.047412   0.312587   0.059071   0.023558  -0.004614
      8      -0.016727   0.035159  -0.154205  -0.011325  -0.035482   0.006689
      9      -0.046221   0.056676  -0.002830   0.011011  -0.137938  -0.054213
     10       0.044662   0.013615   0.001727   0.002904  -0.053477  -0.017627
     11       0.059346  -0.062102  -0.006627   0.019298  -0.031732   0.012463
     12       0.022098  -0.018371   0.030691  -0.002804   0.036298   0.025165
     13      -0.049539   0.056951   0.016729  -0.013338  -0.033510  -0.004975
     14       0.036826   0.001295  -0.013262  -0.059071  -0.020488  -0.001743
     15       0.023901   0.020431   0.004540  -0.035087   0.036475   0.086144
     16      -0.093368   0.422133   0.065995  -0.025109  -0.042763  -0.251824
     17       0.084254  -0.711563   0.079394   0.178540   0.003954  -0.092954
     18       0.073045   0.247781   0.381528   0.002932   0.702391   0.509714
     19      -0.281320   0.066055   0.014496   0.091432   0.211481   0.165014
     20      -0.198030  -0.029990  -0.013878   0.088291   0.114413   0.117109
     21       0.063738  -0.034155  -0.087839   0.329294  -0.021179   0.002201
     22       0.059670  -0.144109   0.145821   0.141088  -0.049591  -0.016324
     23       0.023515   0.222416  -0.482799   0.523665   0.066436   0.045409
     24      -0.285052  -0.012864   0.030058  -0.051292  -0.388454   0.572958
     25      -0.598212  -0.210306  -0.075520   0.018189  -0.139841   0.316611
     26       0.617584   0.290753   0.055437  -0.107504  -0.278600   0.410597
     27       0.069857   0.021748  -0.226972   0.442071  -0.119493   0.049002
     28       0.020334  -0.134259   0.429741  -0.178788  -0.319038   0.024604
     29      -0.091789  -0.036735   0.306336  -0.543320   0.161531  -0.065714
                 18         19         20         21         22         23    
      0       0.012431  -0.036854  -0.010705   0.013817  -0.045812   0.049544
      1      -0.075327  -0.037691  -0.053501   0.040816  -0.047395   0.184330
      2      -0.054832  -0.042274  -0.032761   0.031025  -0.056781   0.173365
      3       0.012049   0.016568   0.022605   0.047989   0.217100  -0.008854
      4      -0.011802   0.034398   0.021282  -0.046872  -0.050383  -0.198272
      5      -0.019493  -0.036817  -0.024094  -0.016109   0.090456  -0.174060
      6      -0.010767  -0.020407   0.031529   0.086317  -0.051640  -0.035496
      7       0.002810   0.059155  -0.030818   0.010117   0.010233   0.006268
      8       0.013380  -0.087574   0.037441  -0.046805   0.005597   0.031364
      9       0.025666   0.130106   0.005769  -0.040857  -0.159367   0.045492
     10      -0.013590  -0.064266  -0.019361   0.021305   0.032304  -0.002429
     11       0.033864   0.131705   0.017283  -0.045673  -0.114082   0.051011
     12      -0.059692  -0.093952  -0.077943  -0.117207  -0.097153  -0.079135
     13       0.152746   0.019441  -0.001475   0.055467   0.060393   0.077051
     14       0.080022   0.012479   0.029095   0.047068   0.022908   0.044023
     15       0.162646  -0.173552  -0.197889  -0.109622  -0.155641  -0.087184
     16      -0.760366   0.312391   0.491821  -0.131095   0.312768   0.132406
     17      -0.292729   0.167366   0.204584   0.192111   0.088734  -0.013387
     18       0.168590   0.232516   0.422501  -0.102508  -0.285139   0.086605
     19       0.050293  -0.117320   0.173483  -0.013705  -0.002312  -0.003349
     20       0.074705   0.089340   0.139716  -0.069149  -0.145920   0.051463
     21       0.068702   0.005199  -0.025634  -0.280238   0.264139   0.260161
     22       0.142430  -0.043693   0.022212  -0.753055   0.569072   0.611813
     23      -0.048935   0.136330  -0.137698   0.452307  -0.242677  -0.343712
     24      -0.264981   0.062269  -0.147563   0.074602   0.064151   0.235294
     25      -0.195180   0.009772  -0.116413   0.054713  -0.002141   0.293851
     26      -0.289176   0.024715  -0.143627   0.104324   0.017618   0.299956
     27       0.056160  -0.234933   0.158503   0.052694  -0.080580   0.053141
     28       0.021062  -0.711120   0.528228   0.070873  -0.410186   0.062982
     29      -0.071734   0.340222  -0.228445  -0.020081   0.120432  -0.092968
                 24         25         26         27         28         29    
      0      -0.000679   0.000497  -0.000027  -0.037219  -0.004636   0.001678
      1      -0.000615  -0.000039   0.000158   0.043095   0.005289  -0.002112
      2       0.000032  -0.000237  -0.000038   0.025323   0.003080  -0.001371
      3       0.002172  -0.001408   0.000082  -0.000887  -0.000023  -0.000848
      4       0.000748  -0.001148  -0.000599  -0.000171  -0.000741  -0.000321
      5      -0.000276   0.000912   0.000203  -0.000431  -0.000464  -0.000087
      6      -0.006784   0.035531  -0.055470  -0.000118   0.000975  -0.000305
      7      -0.042216  -0.033179   0.000531  -0.000166  -0.000396  -0.000072
      8      -0.051166  -0.029335  -0.032383  -0.000109  -0.000267  -0.000486
      9       0.000206   0.000076  -0.000637   0.000096   0.000014   0.004555
     10      -0.000571   0.000559   0.000372  -0.002055   0.000814  -0.037673
     11      -0.001208  -0.000762  -0.000864   0.002459  -0.001105   0.050166
     12      -0.002440   0.001932  -0.000241   0.007765  -0.060912  -0.001825
     13       0.002576  -0.001331   0.000369   0.001214  -0.010062  -0.000194
     14      -0.003933  -0.000117  -0.000246   0.001056  -0.008349  -0.000283
     15       0.000949  -0.013037   0.005634  -0.120529   0.962141   0.026980
     16      -0.012942  -0.006589   0.002114  -0.022600   0.180023   0.005236
     17       0.003165  -0.002439   0.000610  -0.018470   0.146413   0.003792
     18       0.011244  -0.001280  -0.001303  -0.001863   0.000460  -0.046512
     19       0.000472  -0.001283  -0.007087   0.031115  -0.012847   0.603922
     20      -0.000216   0.002641   0.007281  -0.040833   0.017343  -0.791152
     21       0.452981  -0.717663   0.122481  -0.000580  -0.013278  -0.001728
     22       0.200877   0.566624  -0.113936   0.000651   0.007662   0.000040
     23       0.541321   0.345502  -0.082830   0.000516   0.005258   0.001388
     24      -0.000227  -0.002469  -0.000552   0.612568   0.077715  -0.029352
     25      -0.000155   0.001491   0.000665  -0.673124  -0.085404   0.033155
     26      -0.000072   0.001014   0.000733  -0.386888  -0.049247   0.019308
     27      -0.369175   0.168420   0.766329   0.001993  -0.001746   0.008190
     28       0.439708   0.009969   0.111569   0.000521  -0.000475   0.001943
     29       0.356382   0.112186   0.600980   0.001220  -0.001946   0.006712


-----------
IR SPECTRUM
-----------

 Mode    freq (cm**-1)   T**2         TX         TY         TZ
-------------------------------------------------------------------
   6:        66.35    3.050907  (  1.489039   0.307108   0.859856)
   7:       141.60   18.867461  (  1.053705  -4.198174  -0.364012)
   8:       195.61  166.745835  (  5.876123  -3.108872 -11.070317)
   9:       217.69    2.897722  ( -1.389885  -0.806075  -0.562304)
  10:       233.53   25.387036  (  3.154995   3.639833   1.478058)
  11:       269.43  127.569725  ( -2.239560  -6.649622   8.850798)
  12:       291.43   60.499135  (  1.599867  -7.536493   1.068096)
  13:       295.18   23.845433  ( -0.068466  -4.514071   1.861158)
  14:       426.16   66.884847  ( -3.688096  -4.768915   5.526323)
  15:       445.55   49.581792  (  6.262898  -0.871428   3.098147)
  16:       588.43   44.438608  (  2.602858  -5.932438   1.571596)
  17:       612.29  267.485888  ( 14.515844   4.665941   5.916515)
  18:       638.17  123.492244  (  5.133810  -6.509944  -7.399788)
  19:       673.00   34.495420  ( -1.841603  -3.934078   3.953094)
  20:       679.99  240.335547  (  5.113346  14.314093  -3.048930)
  21:       762.58  228.613140  ( -0.943833 -13.841160   6.012039)
  22:       881.75  149.753724  ( 11.449317   1.010428   4.200702)
  23:       890.37  130.790599  (  4.586313  -2.732764 -10.113770)
  24:      1561.54   61.274730  (  1.442553   5.291694   5.584957)
  25:      3414.88  160.196477  (-10.689691   2.807263   6.168165)
  26:      3617.40  132.263972  ( 10.423714  -0.890019   4.776821)
  27:      3806.79   41.874078  (  1.339492  -4.862373  -4.054278)
  28:      3807.27   55.508191  (  7.408153  -0.791479  -0.032024)
  29:      3821.08   49.807596  ( -1.904069   3.755598  -5.663709)

The first frequency considered to be a vibration is 6
The total number of vibrations considered is 24


--------------------------
THERMOCHEMISTRY AT 298.15K
--------------------------

Temperature         ... 298.15 K
Pressure            ... 1.00 atm
Total Mass          ... 96.02 AMU

Throughout the following assumptions are being made:
  (1) The electronic state is orbitally nondegenerate
  (2) There are no thermally accessible electronically excited states
  (3) Hindered rotations indicated by low frequency modes are not
      treated as such but are treated as vibrations and this may
      cause some error
  (4) All equations used are the standard statistical mechanics
      equations for an ideal gas
  (5) All vibrations are strictly harmonic

freq.      66.35  E(vib)   ...       0.50 
freq.     141.60  E(vib)   ...       0.41 
freq.     195.61  E(vib)   ...       0.36 
freq.     217.69  E(vib)   ...       0.33 
freq.     233.53  E(vib)   ...       0.32 
freq.     269.43  E(vib)   ...       0.29 
freq.     291.43  E(vib)   ...       0.27 
freq.     295.18  E(vib)   ...       0.27 
freq.     426.16  E(vib)   ...       0.18 
freq.     445.55  E(vib)   ...       0.17 
freq.     588.43  E(vib)   ...       0.10 
freq.     612.29  E(vib)   ...       0.10 
freq.     638.17  E(vib)   ...       0.09 
freq.     673.00  E(vib)   ...       0.08 
freq.     679.99  E(vib)   ...       0.08 
freq.     762.58  E(vib)   ...       0.06 
freq.     881.75  E(vib)   ...       0.04 
freq.     890.37  E(vib)   ...       0.04 
freq.    1561.54  E(vib)   ...       0.00 
freq.    3414.88  E(vib)   ...       0.00 
freq.    3617.40  E(vib)   ...       0.00 
freq.    3806.79  E(vib)   ...       0.00 
freq.    3807.27  E(vib)   ...       0.00 
freq.    3821.08  E(vib)   ...       0.00 

------------
INNER ENERGY
------------

The inner energy is: U= E(el) + E(ZPE) + E(vib) + E(rot) + E(trans)
    E(el)   - is the total energy from the electronic structure calculation
              = E(kin-el) + E(nuc-el) + E(el-el) + E(nuc-nuc)
    E(ZPE)  - the the zero temperature vibrational energy from the frequency calculation
    E(vib)  - the the finite temperature correction to E(ZPE) due to population
              of excited vibrational states
    E(rot)  - is the rotational thermal energy
    E(trans)- is the translational thermal energy

Summary of contributions to the inner energy U:
Electronic energy                ...   -546.25350466 Eh
Zero point energy                ...      0.06455884 Eh      40.51 kcal/mol
Thermal vibrational correction   ...      0.00585240 Eh       3.67 kcal/mol
Thermal rotational correction    ...      0.00141627 Eh       0.89 kcal/mol
Thermal translational correction ...      0.00141627 Eh       0.89 kcal/mol
-----------------------------------------------------------------------
Total thermal energy                   -546.18026088 Eh


Summary of corrections to the electronic energy:
(perhaps to be used in another calculation)
Total thermal correction                  0.00868494 Eh       5.45 kcal/mol
Non-thermal (ZPE) correction              0.06455884 Eh      40.51 kcal/mol
-----------------------------------------------------------------------
Total correction                          0.07324378 Eh      45.96 kcal/mol


--------
ENTHALPY
--------

The enthalpy is H = U + kB*T
                kB is Boltzmann's constant
Total free energy                 ...   -546.18026088 Eh 
Thermal Enthalpy correction       ...      0.00094421 Eh       0.59 kcal/mol
-----------------------------------------------------------------------
Total Enthalpy                    ...   -546.17931667 Eh


Note: Only C1 symmetry has been detected, increase convergence thresholds 
      if your molecule has a higher symmetry. Symmetry factor of 1.0 is   
      used for the rotational entropy correction. 
 

Note: Rotational entropy computed according to Herzberg 
Infrared and Raman Spectra, Chapter V,1, Van Nostrand Reinhold, 1945 
Point Group:  C1, Symmetry Number:   1  
Rotational constants in cm-1:     0.125806     0.113298     0.094131 

Vibrational entropy computed according to the QRRHO of S. Grimme
Chem.Eur.J. 2012 18 9955


-------
ENTROPY
-------

The entropy contributions are T*S = T*(S(el)+S(vib)+S(rot)+S(trans))
     S(el)   - electronic entropy
     S(vib)  - vibrational entropy
     S(rot)  - rotational entropy
     S(trans)- translational entropy
The entropies will be listed as mutliplied by the temperature to get
units of energy

Electronic entropy                ...      0.00000000 Eh      0.00 kcal/mol
Vibrational entropy               ...      0.00992029 Eh      6.23 kcal/mol
Rotational entropy                ...      0.01263313 Eh      7.93 kcal/mol
Translational entropy             ...      0.01881369 Eh     11.81 kcal/mol
-----------------------------------------------------------------------
Final entropy term                ...      0.04136711 Eh     25.96 kcal/mol

In case the symmetry of your molecule has not been determined correctly
or in case you have a reason to use a different symmetry number we print 
out the resulting rotational entropy values for sn=1,12 :
 --------------------------------------------------------
|  sn= 1 | S(rot)=       0.01263313 Eh      7.93 kcal/mol|
|  sn= 2 | S(rot)=       0.01197867 Eh      7.52 kcal/mol|
|  sn= 3 | S(rot)=       0.01159584 Eh      7.28 kcal/mol|
|  sn= 4 | S(rot)=       0.01132422 Eh      7.11 kcal/mol|
|  sn= 5 | S(rot)=       0.01111353 Eh      6.97 kcal/mol|
|  sn= 6 | S(rot)=       0.01094139 Eh      6.87 kcal/mol|
|  sn= 7 | S(rot)=       0.01079584 Eh      6.77 kcal/mol|
|  sn= 8 | S(rot)=       0.01066976 Eh      6.70 kcal/mol|
|  sn= 9 | S(rot)=       0.01055855 Eh      6.63 kcal/mol|
|  sn=10 | S(rot)=       0.01045907 Eh      6.56 kcal/mol|
|  sn=11 | S(rot)=       0.01036908 Eh      6.51 kcal/mol|
|  sn=12 | S(rot)=       0.01028693 Eh      6.46 kcal/mol|
 --------------------------------------------------------


-------------------
GIBBS FREE ENERGY
-------------------

The Gibbs free energy is G = H - T*S

Total enthalpy                    ...   -546.17931667 Eh 
Total entropy correction          ...     -0.04136711 Eh    -25.96 kcal/mol
-----------------------------------------------------------------------
Final Gibbs free energy         ...   -546.22068378 Eh

For completeness - the Gibbs free energy minus the electronic energy
G-E(el)                           ...      0.03282088 Eh     20.60 kcal/mol


Timings for individual modules:

Sum of individual times         ...       35.547 sec (=   0.592 min)
GTO integral calculation        ...        1.443 sec (=   0.024 min)   4.1 %
SCF iterations                  ...        5.431 sec (=   0.091 min)  15.3 %
Analytical frequency calculation...       28.673 sec (=   0.478 min)  80.7 %
                             ****ORCA TERMINATED NORMALLY****
TOTAL RUN TIME: 0 days 0 hours 0 minutes 37 seconds 627 msec
