      -----------------------------------------------------------      
     |                   =====================                   |     
     |                           x T B                           |     
     |                   =====================                   |     
     |                         S. Grimme                         |     
     |          Mulliken Center for Theoretical Chemistry        |     
     |                    University of Bonn                     |     
      -----------------------------------------------------------      

   * xtb version 6.3.3 (5b13467) compiled by 'ehlert@majestix' on 2020-09-17

   xtb is free software: you can redistribute it and/or modify it under
   the terms of the GNU Lesser General Public License as published by
   the Free Software Foundation, either version 3 of the License, or
   (at your option) any later version.
   
   xtb is distributed in the hope that it will be useful,
   but WITHOUT ANY WARRANTY; without even the implied warranty of
   MERCHANTABILITY or FITNESS FOR A PARTICULAR PURPOSE.  See the
   GNU Lesser General Public License for more details.
   
   Cite this work as:
   * C. Bannwarth, E. Caldeweyher, S. Ehlert, A. Hansen, P. Pracht,
     J. Seibert, S. Spicher, S. Grimme, WIREs Comput. Mol. Sci., 2020,
     e01493. DOI: 10.1002/wcms.1493
   
   for GFN2-xTB:
   * S. Grimme, C. Bannwarth, P. Shushkov, J. Chem. Theory Comput., 2017,
     13, 1989-2009. DOI: 10.1021/acs.jctc.7b00118
   for GFN1-xTB:
   * C. Bannwarth, S. Ehlert and S. Grimme., J. Chem. Theory Comput., 2019,
     15, 1652-1671. DOI: 10.1021/acs.jctc.8b01176
   for GFN0-xTB:
   * P. Pracht, E. Caldeweyher, S. Ehlert, S. Grimme, ChemRxiv, 2019, preprint.
     DOI: 10.26434/chemrxiv.8326202.v1
   for GFN-FF:
   * S. Spicher and S. Grimme, Angew. Chem. Int. Ed., 2020, 59, 15665-15673.
     DOI: 10.1002/anie.202004239
   
   for DFT-D4:
   * E. Caldeweyher, C. Bannwarth and S. Grimme, J. Chem. Phys., 2017,
     147, 034112. DOI: 10.1063/1.4993215
   * E. Caldeweyher, S. Ehlert, A. Hansen, H. Neugebauer, S. Spicher,
     C. Bannwarth and S. Grimme, J. Chem. Phys., 2019, 150, 154122.
     DOI: 10.1063/1.5090222
   * E. Caldeweyher, J.-M. Mewes, S. Ehlert and S. Grimme, Phys. Chem. Chem. Phys.
     2020, 22, 8499-8512. DOI: 10.1039/D0CP00502A
   
   for sTDA-xTB:
   * S. Grimme and C. Bannwarth, J. Chem. Phys., 2016, 145, 054103.
     DOI: 10.1063/1.4959605
   
   in the mass-spec context:
   * V. Asgeirsson, C. Bauer and S. Grimme, Chem. Sci., 2017, 8, 4879.
     DOI: 10.1039/c7sc00601b
   * J. Koopman and S. Grimme, ACS Omega 2019, 4, 12, 15120-15133.
     DOI: 10.1021/acsomega.9b02011
   
   for metadynamics refer to:
   * S. Grimme, J. Chem. Theory Comput., 2019, 155, 2847-2862
     DOI: 10.1021/acs.jctc.9b00143
   
   with help from (in alphabetical order)
   C. Bannwarth, F. Bohle, G. Brandenburg, E. Caldeweyher, M. Checinski,
   S. Dohm, S. Ehlert, S. Ehrlich, F. März, H. Neugebauer, J. Pisarek,
   P. Pracht, P. Shushkov, and S. Spicher.
   
 * started run on 2021/02/02 at 19:21:41.200     

           -------------------------------------------------
          |                Calculation Setup                |
           -------------------------------------------------

          program call               : /ihome/jkeith/amm503/codes/xtb-6.3.3/bin/xtb 5h2o.example.xyz --opt tight --gfn 2 --charge 0 --cycles 200
          hostname                   : smp-n25
          coordinate file            : 5h2o.example.xyz
          omp threads                :                     4
          number of atoms            :                    15
          number of electrons        :                    40
          charge                     :                     0
          spin                       :                   0.0
          first test random number   :      0.12216443679481

   ID    Z sym.   atoms
    1    8 O      1, 4, 7, 10, 13
    2    1 H      2, 3, 5, 6, 8, 9, 11, 12, 14, 15

molecular fragmentation (1/2 indicates fragments):
111222222222222
# atoms in fragment 1/2:     3    12
 fragment masses (1/2) :       18.02       72.06
CMA distance (Bohr)    :   5.446
constraining FC (au)   :  0.0500

           -------------------------------------------------
          |                 G F N 2 - x T B                 |
           -------------------------------------------------

        Reference                      10.1021/acs.jctc.8b01176
      * Hamiltonian:
        H0-scaling (s, p, d)           1.850000    2.230000    2.230000
        zeta-weighting                 0.500000
      * Dispersion:
        s8                             2.700000
        a1                             0.520000
        a2                             5.000000
        s9                             5.000000
      * Repulsion:
        kExp                           1.500000    1.000000
        rExp                           1.000000
      * Coulomb:
        alpha                          2.000000
        third order                    shell-resolved
        anisotropic                    true
        a3                             3.000000
        a5                             4.000000
        cn-shift                       1.200000
        cn-exp                         4.000000
        max-rad                        5.000000


          ...................................................
          :                      SETUP                      :
          :.................................................:
          :  # basis functions                  30          :
          :  # atomic orbitals                  30          :
          :  # shells                           20          :
          :  # electrons                        40          :
          :  max. iterations                   250          :
          :  Hamiltonian                  GFN2-xTB          :
          :  restarted?                      false          :
          :  GBSA solvation                  false          :
          :  PC potential                    false          :
          :  electronic temp.          300.0000000     K    :
          :  accuracy                    1.0000000          :
          :  -> integral cutoff          0.2500000E+02      :
          :  -> integral neglect         0.1000000E-07      :
          :  -> SCF convergence          0.1000000E-05 Eh   :
          :  -> wf. convergence          0.1000000E-03 e    :
          :  Broyden damping             0.4000000          :
          ...................................................

 iter      E             dE          RMSdq      gap      omega  full diag
   1    -25.5774570 -0.255775E+02  0.413E+00   12.91       0.0  T
   2    -25.5792737 -0.181670E-02  0.245E+00   12.81       1.0  T
   3    -25.5799913 -0.717566E-03  0.238E-01   12.70       1.0  T
   4    -25.5801124 -0.121077E-03  0.726E-02   12.80       1.0  T
   5    -25.5801262 -0.137855E-04  0.392E-02   12.76       1.0  T
   6    -25.5801278 -0.165694E-05  0.335E-03   12.77       7.7  T
   7    -25.5801278 -0.224557E-07  0.134E-03   12.77      19.2  T
   8    -25.5801278 -0.377199E-08  0.178E-04   12.77     145.0  T
   9    -25.5801278 -0.576605E-10  0.168E-05   12.77    1534.0  T

   *** convergence criteria satisfied after 9 iterations ***

         #    Occupation            Energy/Eh            Energy/eV
      -------------------------------------------------------------
         1        2.0000           -0.6688337             -18.1999
       ...           ...                  ...                  ...
        14        2.0000           -0.4921517             -13.3921
        15        2.0000           -0.4769715             -12.9791
        16        2.0000           -0.4360190             -11.8647
        17        2.0000           -0.4341942             -11.8150
        18        2.0000           -0.4336502             -11.8002
        19        2.0000           -0.4333186             -11.7912
        20        2.0000           -0.4327273             -11.7751 (HOMO)
        21                          0.0366681               0.9978 (LUMO)
        22                          0.0929990               2.5306
        23                          0.0965975               2.6286
        24                          0.1719843               4.6799
        25                          0.1736661               4.7257
       ...                                ...                  ...
        30                          0.3608914               9.8204
      -------------------------------------------------------------
                  HL-Gap            0.4693955 Eh           12.7729 eV
             Fermi-level           -0.1980296 Eh           -5.3887 eV

 SCC (total)                   0 d,  0 h,  0 min,  0.076 sec
 SCC setup                      ...        0 min,  0.003 sec (  4.142%)
 Dispersion                     ...        0 min,  0.000 sec (  0.217%)
 classical contributions        ...        0 min,  0.000 sec (  0.131%)
 integral evaluation            ...        0 min,  0.001 sec (  1.279%)
 iterations                     ...        0 min,  0.069 sec ( 91.089%)
 molecular gradient             ...        0 min,  0.002 sec (  2.883%)
 printout                       ...        0 min,  0.000 sec (  0.190%)

         :::::::::::::::::::::::::::::::::::::::::::::::::::::
         ::                     SUMMARY                     ::
         :::::::::::::::::::::::::::::::::::::::::::::::::::::
         :: total energy             -25.404338997931 Eh    ::
         :: gradient norm              0.048763527905 Eh/a0 ::
         :: HOMO-LUMO gap             12.772900340050 eV    ::
         ::.................................................::
         :: SCC energy               -25.580127846040 Eh    ::
         :: -> isotropic ES            0.153316435656 Eh    ::
         :: -> anisotropic ES         -0.020934020006 Eh    ::
         :: -> anisotropic XC         -0.003785806991 Eh    ::
         :: -> dispersion             -0.004190013801 Eh    ::
         :: repulsion energy           0.175746000529 Eh    ::
         :: add. restraining           0.000000000000 Eh    ::
         :: total charge              -0.000000000000 e     ::
         :::::::::::::::::::::::::::::::::::::::::::::::::::::

      ----------------------------------------------------------- 
     |                   =====================                   |
     |                        A N C O P T                        |
     |                   =====================                   |
     |               Approximate Normal Coordinate               |
     |                Rational Function Optimizer                |
      ----------------------------------------------------------- 

          ...................................................
          :                      SETUP                      :
          :.................................................:
          :   optimization level             tight          :
          :   max. optcycles                   200          :
          :   ANC micro-cycles                  20          :
          :   degrees of freedom                39          :
          :.................................................:
          :   RF solver                   davidson          :
          :   write xtbopt.log                true          :
          :   linear?                        false          :
          :   energy convergence         0.1000000E-05 Eh   :
          :   grad. convergence          0.8000000E-03 Eh/α :
          :   maximium RF displ.         1.0000000          :
          :   Hlow (freq-cutoff)         0.1000000E-01      :
          :   Hmax (freq-cutoff)         5.0000000          :
          :   S6 in model hess.         20.0000000          :
          ...................................................

generating ANC from model Hessian ...
Using Lindh-Hessian (1995)
 Shifting diagonal of input Hessian by   1.011730155271428E-002
 Lowest  eigenvalues of input Hessian
    0.010000    0.010006    0.000000    0.000000    0.000000    0.000000
    0.000000    0.000000    0.010221    0.010351    0.010449    0.010958
    0.012453    0.012807    0.013289    0.013494    0.016745    0.017016
 Highest eigenvalues
    1.289467    1.431380    1.434368    1.435750    1.439539    1.441703
 

........................................................................
.............................. CYCLE    1 ..............................
........................................................................
   1    -25.5801278 -0.255801E+02  0.369E-06   12.77       0.0  T
   2    -25.5801278 -0.213163E-13  0.220E-06   12.77   11733.2  T
   3    -25.5801278  0.355271E-14  0.572E-07   12.77   45178.6  T
     SCC iter.                  ...        0 min,  0.042 sec
     gradient                   ...        0 min,  0.021 sec
 * total energy  :   -25.4043390 Eh     change       -0.6004086E-12 Eh
   gradient norm :     0.0487636 Eh/α   predicted     0.0000000E+00 (-100.00%)
   displ. norm   :     0.1529597 α      lambda       -0.2848380E-02
   maximum displ.:     0.0530505 α      in ANC's #15, #10, #9, ...

........................................................................
.............................. CYCLE    2 ..............................
........................................................................
   1    -25.5695259 -0.255695E+02  0.117E-01   12.46       0.0  T
   2    -25.5695289 -0.298205E-05  0.713E-02   12.46       1.0  T
   3    -25.5695306 -0.169718E-05  0.726E-03   12.46       3.6  T
   4    -25.5695307 -0.511556E-07  0.215E-03   12.46      12.0  T
   5    -25.5695307 -0.412250E-08  0.255E-04   12.46     101.1  T
   6    -25.5695307 -0.700986E-10  0.114E-04   12.46     227.0  T
     SCC iter.                  ...        0 min,  0.003 sec
     gradient                   ...        0 min,  0.017 sec
 * total energy  :   -25.4061676 Eh     change       -0.1828600E-02 Eh
   gradient norm :     0.0143026 Eh/α   predicted    -0.1457512E-02 ( -20.29%)
   displ. norm   :     0.1500846 α      lambda       -0.7158039E-03
   maximum displ.:     0.0798565 α      in ANC's #15, #13, #4, ...

........................................................................
.............................. CYCLE    3 ..............................
........................................................................
   1    -25.5642720 -0.255643E+02  0.816E-02   12.29       0.0  T
   2    -25.5642736 -0.153329E-05  0.502E-02   12.29       1.0  T
   3    -25.5642745 -0.875486E-06  0.497E-03   12.28       5.2  T
   4    -25.5642745 -0.288641E-07  0.168E-03   12.28      15.4  T
   5    -25.5642745 -0.216454E-08  0.138E-04   12.28     186.5  T
   6    -25.5642745 -0.182396E-10  0.728E-05   12.28     354.7  T
     SCC iter.                  ...        0 min,  0.020 sec
     gradient                   ...        0 min,  0.002 sec
 * total energy  :   -25.4066691 Eh     change       -0.5014604E-03 Eh
   gradient norm :     0.0065170 Eh/α   predicted    -0.3659624E-03 ( -27.02%)
   displ. norm   :     0.2052951 α      lambda       -0.4848037E-03
   maximum displ.:     0.1172984 α      in ANC's #15, #14, #13, ...

........................................................................
.............................. CYCLE    4 ..............................
........................................................................
   1    -25.5606479 -0.255606E+02  0.928E-02   12.19       0.0  T
   2    -25.5606501 -0.224929E-05  0.573E-02   12.19       1.0  T
   3    -25.5606513 -0.115953E-05  0.578E-03   12.18       4.5  T
   4    -25.5606513 -0.520629E-07  0.195E-03   12.18      13.2  T
   5    -25.5606513 -0.253378E-08  0.192E-04   12.18     134.7  T
   6    -25.5606513 -0.309726E-10  0.945E-05   12.18     273.1  T
     SCC iter.                  ...        0 min,  0.008 sec
     gradient                   ...        0 min,  0.019 sec
 * total energy  :   -25.4069937 Eh     change       -0.3246207E-03 Eh
   gradient norm :     0.0118362 Eh/α   predicted    -0.2526217E-03 ( -22.18%)
   displ. norm   :     0.2057419 α      lambda       -0.3641891E-03
   maximum displ.:     0.0966490 α      in ANC's #15, #13, #4, ...

........................................................................
.............................. CYCLE    5 ..............................
........................................................................
   1    -25.5598911 -0.255599E+02  0.895E-02   12.16       0.0  T
   2    -25.5598934 -0.229827E-05  0.558E-02   12.15       1.0  T
   3    -25.5598946 -0.118325E-05  0.543E-03   12.14       4.8  T
   4    -25.5598946 -0.483026E-07  0.172E-03   12.15      15.0  T
   5    -25.5598946 -0.168451E-08  0.223E-04   12.15     115.6  T
   6    -25.5598946 -0.405933E-10  0.103E-04   12.15     251.6  T
     SCC iter.                  ...        0 min,  0.013 sec
     gradient                   ...        0 min,  0.002 sec
 * total energy  :   -25.4072355 Eh     change       -0.2418005E-03 Eh
   gradient norm :     0.0115714 Eh/α   predicted    -0.1898007E-03 ( -21.51%)
   displ. norm   :     0.2117611 α      lambda       -0.3751192E-03
   maximum displ.:     0.0950511 α      in ANC's #14, #15, #13, ...

........................................................................
.............................. CYCLE    6 ..............................
........................................................................
   1    -25.5624349 -0.255624E+02  0.722E-02   12.24       0.0  T
   2    -25.5624368 -0.187400E-05  0.446E-02   12.24       1.0  T
   3    -25.5624376 -0.819627E-06  0.527E-03   12.23       4.9  T
   4    -25.5624377 -0.507401E-07  0.147E-03   12.23      17.5  T
   5    -25.5624377 -0.136369E-08  0.221E-04   12.23     116.9  T
   6    -25.5624377 -0.407603E-10  0.923E-05   12.23     279.6  T
     SCC iter.                  ...        0 min,  0.003 sec
     gradient                   ...        0 min,  0.002 sec
 * total energy  :   -25.4074054 Eh     change       -0.1698853E-03 Eh
   gradient norm :     0.0062252 Eh/α   predicted    -0.1959703E-03 (  15.35%)
   displ. norm   :     0.0888989 α      lambda       -0.1457218E-03
   maximum displ.:     0.0634984 α      in ANC's #4, #2, #13, ...

........................................................................
.............................. CYCLE    7 ..............................
........................................................................
   1    -25.5626251 -0.255626E+02  0.625E-02   12.26       0.0  T
   2    -25.5626260 -0.828804E-06  0.390E-02   12.26       1.0  T
   3    -25.5626264 -0.448519E-06  0.296E-03   12.26       8.7  T
   4    -25.5626264 -0.109254E-07  0.824E-04   12.26      31.3  T
   5    -25.5626264 -0.305938E-09  0.105E-04   12.26     246.1  T
     SCC iter.                  ...        0 min,  0.003 sec
     gradient                   ...        0 min,  0.002 sec
 * total energy  :   -25.4074842 Eh     change       -0.7879068E-04 Eh
   gradient norm :     0.0050426 Eh/α   predicted    -0.7343601E-04 (  -6.80%)
   displ. norm   :     0.0414307 α      lambda       -0.5005103E-04
   maximum displ.:     0.0286247 α      in ANC's #7, #4, #9, ...

........................................................................
.............................. CYCLE    8 ..............................
........................................................................
   1    -25.5642328 -0.255642E+02  0.211E-02   12.30       0.0  T
   2    -25.5642329 -0.134573E-06  0.127E-02   12.30       2.0  T
   3    -25.5642330 -0.372233E-07  0.150E-03   12.30      17.2  T
   4    -25.5642330 -0.456680E-08  0.399E-04   12.30      64.7  T
   5    -25.5642330 -0.731042E-10  0.396E-05   12.30     651.5  T
     SCC iter.                  ...        0 min,  0.014 sec
     gradient                   ...        0 min,  0.002 sec
 * total energy  :   -25.4075132 Eh     change       -0.2902613E-04 Eh
   gradient norm :     0.0022842 Eh/α   predicted    -0.2506746E-04 ( -13.64%)
   displ. norm   :     0.1133268 α      lambda       -0.7629363E-04
   maximum displ.:     0.0630059 α      in ANC's #7, #4, #14, ...

........................................................................
.............................. CYCLE    9 ..............................
........................................................................
   1    -25.5634249 -0.255634E+02  0.602E-02   12.31       0.0  T
   2    -25.5634257 -0.783576E-06  0.369E-02   12.31       1.0  T
   3    -25.5634260 -0.325331E-06  0.348E-03   12.32       7.4  T
   4    -25.5634260 -0.220915E-07  0.102E-03   12.32      25.3  T
   5    -25.5634260 -0.581181E-09  0.126E-04   12.32     205.4  T
   6    -25.5634260 -0.186517E-10  0.535E-05   12.32     482.4  T
     SCC iter.                  ...        0 min,  0.005 sec
     gradient                   ...        0 min,  0.012 sec
 * total energy  :   -25.4075356 Eh     change       -0.2246030E-04 Eh
   gradient norm :     0.0055862 Eh/α   predicted    -0.3863641E-04 (  72.02%)
   displ. norm   :     0.0359496 α      lambda       -0.4145010E-04
   maximum displ.:     0.0238548 α      in ANC's #5, #2, #6, ...

........................................................................
.............................. CYCLE   10 ..............................
........................................................................
   1    -25.5640789 -0.255641E+02  0.212E-02   12.32       0.0  T
   2    -25.5640790 -0.120432E-06  0.129E-02   12.32       2.0  T
   3    -25.5640791 -0.478099E-07  0.146E-03   12.32      17.7  T
   4    -25.5640791 -0.331821E-08  0.423E-04   12.32      61.0  T
   5    -25.5640791 -0.100233E-09  0.437E-05   12.32     591.2  T
     SCC iter.                  ...        0 min,  0.004 sec
     gradient                   ...        0 min,  0.002 sec
 * total energy  :   -25.4075588 Eh     change       -0.2314547E-04 Eh
   gradient norm :     0.0035700 Eh/α   predicted    -0.2075365E-04 ( -10.33%)
   displ. norm   :     0.0200140 α      lambda       -0.1843833E-04
   maximum displ.:     0.0117131 α      in ANC's #2, #15, #9, ...

........................................................................
.............................. CYCLE   11 ..............................
........................................................................
   1    -25.5644743 -0.255645E+02  0.998E-03   12.33       0.0  T
   2    -25.5644744 -0.822110E-07  0.581E-03   12.33       4.4  T
   3    -25.5644744 -0.203135E-07  0.123E-03   12.33      21.0  T
   4    -25.5644744 -0.240333E-08  0.291E-04   12.33      88.6  T
   5    -25.5644744 -0.557741E-10  0.299E-05   12.33     864.2  T
     SCC iter.                  ...        0 min,  0.004 sec
     gradient                   ...        0 min,  0.002 sec
 * total energy  :   -25.4075681 Eh     change       -0.9352917E-05 Eh
   gradient norm :     0.0017497 Eh/α   predicted    -0.9221616E-05 (  -1.40%)
   displ. norm   :     0.0750129 α      lambda       -0.1511844E-04
   maximum displ.:     0.0339484 α      in ANC's #4, #2, #5, ...

........................................................................
.............................. CYCLE   12 ..............................
........................................................................
   1    -25.5639685 -0.255640E+02  0.460E-02   12.32       0.0  T
   2    -25.5639689 -0.367341E-06  0.285E-02   12.32       1.0  T
   3    -25.5639691 -0.191341E-06  0.211E-03   12.32      12.3  T
   4    -25.5639691 -0.587833E-08  0.644E-04   12.32      40.1  T
   5    -25.5639691 -0.168082E-09  0.680E-05   12.32     380.0  T
     SCC iter.                  ...        0 min,  0.015 sec
     gradient                   ...        0 min,  0.002 sec
 * total energy  :   -25.4075776 Eh     change       -0.9494985E-05 Eh
   gradient norm :     0.0038207 Eh/α   predicted    -0.7579832E-05 ( -20.17%)
   displ. norm   :     0.0265181 α      lambda       -0.1423591E-04
   maximum displ.:     0.0150497 α      in ANC's #10, #5, #7, ...

........................................................................
.............................. CYCLE   13 ..............................
........................................................................
   1    -25.5640100 -0.255640E+02  0.172E-02   12.32       0.0  T
   2    -25.5640101 -0.107902E-06  0.104E-02   12.32       2.5  T
   3    -25.5640101 -0.351458E-07  0.141E-03   12.32      18.3  T
   4    -25.5640101 -0.357915E-08  0.369E-04   12.32      69.9  T
   5    -25.5640101 -0.803162E-10  0.331E-05   12.32     780.8  T
     SCC iter.                  ...        0 min,  0.004 sec
     gradient                   ...        0 min,  0.002 sec
 * total energy  :   -25.4075822 Eh     change       -0.4559495E-05 Eh
   gradient norm :     0.0037454 Eh/α   predicted    -0.7123391E-05 (  56.23%)
   displ. norm   :     0.0282911 α      lambda       -0.2472142E-04
   maximum displ.:     0.0143010 α      in ANC's #5, #13, #6, ...

........................................................................
.............................. CYCLE   14 ..............................
........................................................................
   1    -25.5640806 -0.255641E+02  0.166E-02   12.33       0.0  T
   2    -25.5640807 -0.941219E-07  0.101E-02   12.33       2.5  T
   3    -25.5640807 -0.355117E-07  0.127E-03   12.33      20.3  T
   4    -25.5640807 -0.288161E-08  0.356E-04   12.33      72.6  T
   5    -25.5640807 -0.704468E-10  0.339E-05   12.33     761.6  T
     SCC iter.                  ...        0 min,  0.004 sec
     gradient                   ...        0 min,  0.002 sec
 * total energy  :   -25.4075987 Eh     change       -0.1649621E-04 Eh
   gradient norm :     0.0014990 Eh/α   predicted    -0.1236977E-04 ( -25.01%)
   displ. norm   :     0.1390376 α      lambda       -0.3712251E-04
   maximum displ.:     0.0940851 α      in ANC's #5, #4, #9, ...

........................................................................
.............................. CYCLE   15 ..............................
........................................................................
   1    -25.5633374 -0.255633E+02  0.860E-02   12.31       0.0  T
   2    -25.5633391 -0.168117E-05  0.530E-02   12.32       1.0  T
   3    -25.5633398 -0.650618E-06  0.477E-03   12.32       5.4  T
   4    -25.5633398 -0.464386E-07  0.126E-03   12.32      20.4  T
   5    -25.5633398 -0.450108E-09  0.123E-04   12.32     209.6  T
   6    -25.5633398 -0.148539E-10  0.541E-05   12.32     477.1  T
     SCC iter.                  ...        0 min,  0.005 sec
     gradient                   ...        0 min,  0.002 sec
 * total energy  :   -25.4076016 Eh     change       -0.2865203E-05 Eh
   gradient norm :     0.0082295 Eh/α   predicted    -0.1872046E-04 ( 553.37%)
   displ. norm   :     0.0413129 α      lambda       -0.5631086E-04
   maximum displ.:     0.0231774 α      in ANC's #13, #7, #15, ...

........................................................................
.............................. CYCLE   16 ..............................
........................................................................
   1    -25.5644832 -0.255645E+02  0.253E-02   12.34       0.0  T
   2    -25.5644835 -0.257478E-06  0.152E-02   12.34       1.7  T
   3    -25.5644836 -0.863020E-07  0.218E-03   12.34      11.8  T
   4    -25.5644836 -0.818488E-08  0.545E-04   12.34      47.4  T
   5    -25.5644836 -0.170790E-09  0.564E-05   12.34     458.0  T
     SCC iter.                  ...        0 min,  0.004 sec
     gradient                   ...        0 min,  0.002 sec
 * total energy  :   -25.4076295 Eh     change       -0.2798079E-04 Eh
   gradient norm :     0.0033121 Eh/α   predicted    -0.2820226E-04 (   0.79%)
   displ. norm   :     0.0522114 α      lambda       -0.3473747E-04
   maximum displ.:     0.0251413 α      in ANC's #5, #15, #2, ...

........................................................................
.............................. CYCLE   17 ..............................
........................................................................
   1    -25.5636535 -0.255637E+02  0.284E-02   12.33       0.0  T
   2    -25.5636538 -0.302102E-06  0.172E-02   12.33       1.5  T
   3    -25.5636539 -0.997358E-07  0.230E-03   12.33      11.2  T
   4    -25.5636539 -0.963889E-08  0.594E-04   12.33      43.5  T
   5    -25.5636539 -0.184507E-09  0.599E-05   12.33     431.0  T
     SCC iter.                  ...        0 min,  0.004 sec
     gradient                   ...        0 min,  0.002 sec
 * total energy  :   -25.4076417 Eh     change       -0.1214764E-04 Eh
   gradient norm :     0.0039455 Eh/α   predicted    -0.1741515E-04 (  43.36%)
   displ. norm   :     0.0279239 α      lambda       -0.1811160E-04
   maximum displ.:     0.0126623 α      in ANC's #1, #5, #4, ...

........................................................................
.............................. CYCLE   18 ..............................
........................................................................
   1    -25.5636530 -0.255637E+02  0.162E-02   12.33       0.0  T
   2    -25.5636531 -0.562694E-07  0.999E-03   12.33       2.6  T
   3    -25.5636531 -0.281567E-07  0.893E-04   12.33      28.9  T
   4    -25.5636531 -0.976865E-09  0.258E-04   12.33      99.9  T
     SCC iter.                  ...        0 min,  0.004 sec
     gradient                   ...        0 min,  0.002 sec
 * total energy  :   -25.4076541 Eh     change       -0.1240462E-04 Eh
   gradient norm :     0.0020923 Eh/α   predicted    -0.9062824E-05 ( -26.94%)
   displ. norm   :     0.0731544 α      lambda       -0.1851185E-04
   maximum displ.:     0.0471320 α      in ANC's #5, #1, #4, ...

........................................................................
.............................. CYCLE   19 ..............................
........................................................................
   1    -25.5634900 -0.255635E+02  0.411E-02   12.33       0.0  T
   2    -25.5634904 -0.402976E-06  0.254E-02   12.33       1.0  T
   3    -25.5634906 -0.151956E-06  0.230E-03   12.33      11.2  T
   4    -25.5634906 -0.116178E-07  0.597E-04   12.33      43.3  T
   5    -25.5634906 -0.929781E-10  0.588E-05   12.33     438.9  T
     SCC iter.                  ...        0 min,  0.004 sec
     gradient                   ...        0 min,  0.002 sec
 * total energy  :   -25.4076653 Eh     change       -0.1123899E-04 Eh
   gradient norm :     0.0031459 Eh/α   predicted    -0.9304124E-05 ( -17.22%)
   displ. norm   :     0.0508724 α      lambda       -0.1857980E-04
   maximum displ.:     0.0298029 α      in ANC's #1, #5, #20, ...

........................................................................
.............................. CYCLE   20 ..............................
........................................................................
   1    -25.5637050 -0.255637E+02  0.232E-02   12.34       0.0  T
   2    -25.5637051 -0.131091E-06  0.143E-02   12.34       1.8  T
   3    -25.5637052 -0.461925E-07  0.129E-03   12.35      20.0  T
   4    -25.5637052 -0.395980E-08  0.352E-04   12.34      73.3  T
   5    -25.5637052 -0.284004E-10  0.287E-05   12.34     899.5  T
     SCC iter.                  ...        0 min,  0.004 sec
     gradient                   ...        0 min,  0.002 sec
 * total energy  :   -25.4076777 Eh     change       -0.1232420E-04 Eh
   gradient norm :     0.0022719 Eh/α   predicted    -0.9312817E-05 ( -24.43%)
   displ. norm   :     0.0793732 α      lambda       -0.1812792E-04
   maximum displ.:     0.0533417 α      in ANC's #5, #1, #4, ...
 * RMSD in coord.:     0.3005758 α      energy gain  -0.3338654E-02 Eh

generating ANC from model Hessian ...
Using Lindh-Hessian (1995)
 Shifting diagonal of input Hessian by   1.021064472389424E-002
 Lowest  eigenvalues of input Hessian
    0.010000    0.010075    0.000000    0.000000    0.000000    0.000000
    0.000000    0.000000    0.010238    0.010486    0.011016    0.012736
    0.013734    0.014203    0.014738    0.017576    0.018839    0.019844
 Highest eigenvalues
    1.218642    1.397742    1.400470    1.401973    1.406212    1.412715
 

........................................................................
.............................. CYCLE   21 ..............................
........................................................................
   1    -25.5633495 -0.255633E+02  0.399E-02   12.34       0.0  T
   2    -25.5633499 -0.377268E-06  0.245E-02   12.34       1.1  T
   3    -25.5633500 -0.129409E-06  0.224E-03   12.35      11.5  T
   4    -25.5633501 -0.115628E-07  0.549E-04   12.35      47.0  T
   5    -25.5633501 -0.515250E-10  0.519E-05   12.35     497.4  T
     SCC iter.                  ...        0 min,  0.004 sec
     gradient                   ...        0 min,  0.002 sec
 * total energy  :   -25.4076907 Eh     change       -0.1304620E-04 Eh
   gradient norm :     0.0032692 Eh/α   predicted     0.0000000E+00 (-100.00%)
   displ. norm   :     0.0325829 α      lambda       -0.2913163E-04
   maximum displ.:     0.0173609 α      in ANC's #11, #14, #6, ...

........................................................................
.............................. CYCLE   22 ..............................
........................................................................
   1    -25.5635553 -0.255636E+02  0.201E-02   12.35       0.0  T
   2    -25.5635554 -0.612016E-07  0.125E-02   12.35       2.1  T
   3    -25.5635554 -0.351586E-07  0.784E-04   12.35      32.9  T
   4    -25.5635554 -0.471214E-09  0.226E-04   12.35     114.0  T
     SCC iter.                  ...        0 min,  0.004 sec
     gradient                   ...        0 min,  0.002 sec
 * total energy  :   -25.4077131 Eh     change       -0.2241293E-04 Eh
   gradient norm :     0.0012083 Eh/α   predicted    -0.1458254E-04 ( -34.94%)
   displ. norm   :     0.1327437 α      lambda       -0.4305026E-04
   maximum displ.:     0.0624192 α      in ANC's #11, #5, #4, ...

........................................................................
.............................. CYCLE   23 ..............................
........................................................................
   1    -25.5634141 -0.255634E+02  0.712E-02   12.35       0.0  T
   2    -25.5634148 -0.710480E-06  0.440E-02   12.35       1.0  T
   3    -25.5634152 -0.361657E-06  0.287E-03   12.35       9.0  T
   4    -25.5634152 -0.120583E-07  0.948E-04   12.35      27.2  T
   5    -25.5634152 -0.364093E-09  0.948E-05   12.35     272.5  T
     SCC iter.                  ...        0 min,  0.004 sec
     gradient                   ...        0 min,  0.002 sec
 * total energy  :   -25.4077419 Eh     change       -0.2877172E-04 Eh
   gradient norm :     0.0045112 Eh/α   predicted    -0.2169238E-04 ( -24.61%)
   displ. norm   :     0.0279627 α      lambda       -0.1684183E-04
   maximum displ.:     0.0148208 α      in ANC's #6, #5, #14, ...

........................................................................
.............................. CYCLE   24 ..............................
........................................................................
   1    -25.5634821 -0.255635E+02  0.165E-02   12.35       0.0  T
   2    -25.5634822 -0.133361E-06  0.998E-03   12.35       2.6  T
   3    -25.5634823 -0.311520E-07  0.151E-03   12.35      17.2  T
   4    -25.5634823 -0.461561E-08  0.304E-04   12.35      85.0  T
   5    -25.5634823 -0.352784E-10  0.230E-05   12.35    1121.0  T
     SCC iter.                  ...        0 min,  0.004 sec
     gradient                   ...        0 min,  0.002 sec
 * total energy  :   -25.4077553 Eh     change       -0.1346254E-04 Eh
   gradient norm :     0.0026685 Eh/α   predicted    -0.8426854E-05 ( -37.41%)
   displ. norm   :     0.0675071 α      lambda       -0.2415206E-04
   maximum displ.:     0.0340205 α      in ANC's #5, #6, #4, ...

........................................................................
.............................. CYCLE   25 ..............................
........................................................................
   1    -25.5635302 -0.255635E+02  0.359E-02   12.35       0.0  T
   2    -25.5635308 -0.605564E-06  0.218E-02   12.36       1.2  T
   3    -25.5635310 -0.135189E-06  0.319E-03   12.36       8.1  T
   4    -25.5635310 -0.217509E-07  0.657E-04   12.36      39.3  T
   5    -25.5635310 -0.199222E-09  0.571E-05   12.36     451.9  T
     SCC iter.                  ...        0 min,  0.004 sec
     gradient                   ...        0 min,  0.002 sec
 * total energy  :   -25.4077686 Eh     change       -0.1328159E-04 Eh
   gradient norm :     0.0017743 Eh/α   predicted    -0.1213156E-04 (  -8.66%)
   displ. norm   :     0.0306391 α      lambda       -0.4423756E-05
   maximum displ.:     0.0133643 α      in ANC's #4, #6, #5, ...

........................................................................
.............................. CYCLE   26 ..............................
........................................................................
   1    -25.5636038 -0.255636E+02  0.149E-02   12.36       0.0  T
   2    -25.5636039 -0.871914E-07  0.910E-03   12.36       2.8  T
   3    -25.5636039 -0.201389E-07  0.116E-03   12.36      22.3  T
   4    -25.5636039 -0.323922E-08  0.248E-04   12.36     104.3  T
   5    -25.5636039 -0.230003E-10  0.230E-05   12.36    1123.9  T
     SCC iter.                  ...        0 min,  0.004 sec
     gradient                   ...        0 min,  0.002 sec
 * total energy  :   -25.4077733 Eh     change       -0.4683515E-05 Eh
   gradient norm :     0.0009536 Eh/α   predicted    -0.2212056E-05 ( -52.77%)
   displ. norm   :     0.0771683 α      lambda       -0.5431037E-05
   maximum displ.:     0.0364879 α      in ANC's #5, #4, #6, ...

........................................................................
.............................. CYCLE   27 ..............................
........................................................................
   1    -25.5630269 -0.255630E+02  0.404E-02   12.35       0.0  T
   2    -25.5630273 -0.452574E-06  0.248E-02   12.35       1.0  T
   3    -25.5630275 -0.142610E-06  0.256E-03   12.35      10.1  T
   4    -25.5630275 -0.153349E-07  0.652E-04   12.35      39.6  T
   5    -25.5630275 -0.153591E-09  0.641E-05   12.35     403.1  T
     SCC iter.                  ...        0 min,  0.004 sec
     gradient                   ...        0 min,  0.002 sec
 * total energy  :   -25.4077740 Eh     change       -0.7370327E-06 Eh
   gradient norm :     0.0024135 Eh/α   predicted    -0.2721776E-05 ( 269.29%)
   displ. norm   :     0.0182381 α      lambda       -0.6314596E-05
   maximum displ.:     0.0085999 α      in ANC's #6, #5, #11, ...

........................................................................
.............................. CYCLE   28 ..............................
........................................................................
   1    -25.5634207 -0.255634E+02  0.103E-02   12.36       0.0  T
   2    -25.5634207 -0.574367E-07  0.621E-03   12.36       4.2  T
   3    -25.5634208 -0.134533E-07  0.102E-03   12.36      25.4  T
   4    -25.5634208 -0.193273E-08  0.212E-04   12.36     122.0  T
   5    -25.5634208 -0.206306E-10  0.204E-05   12.36    1266.3  T
     SCC iter.                  ...        0 min,  0.004 sec
     gradient                   ...        0 min,  0.002 sec
 * total energy  :   -25.4077778 Eh     change       -0.3733894E-05 Eh
   gradient norm :     0.0007185 Eh/α   predicted    -0.3157227E-05 ( -15.44%)
   displ. norm   :     0.0183156 α      lambda       -0.1919122E-05
   maximum displ.:     0.0094053 α      in ANC's #2, #1, #11, ...

........................................................................
.............................. CYCLE   29 ..............................
........................................................................
   1    -25.5636501 -0.255637E+02  0.736E-03   12.36       0.0  T
   2    -25.5636501 -0.989141E-08  0.452E-03   12.36       5.7  T
   3    -25.5636501 -0.425235E-08  0.373E-04   12.36      69.2  T
   4    -25.5636501 -0.236543E-09  0.114E-04   12.36     225.6  T
     SCC iter.                  ...        0 min,  0.004 sec
     gradient                   ...        0 min,  0.002 sec
 * total energy  :   -25.4077795 Eh     change       -0.1728679E-05 Eh
   gradient norm :     0.0006296 Eh/α   predicted    -0.9609200E-06 ( -44.41%)
   displ. norm   :     0.0287739 α      lambda       -0.1478265E-05
   maximum displ.:     0.0179574 α      in ANC's #2, #1, #4, ...

........................................................................
.............................. CYCLE   30 ..............................
........................................................................
   1    -25.5636162 -0.255636E+02  0.107E-02   12.36       0.0  T
   2    -25.5636162 -0.118990E-07  0.657E-03   12.36       3.9  T
   3    -25.5636163 -0.676952E-08  0.372E-04   12.36      69.4  T
   4    -25.5636163 -0.110422E-09  0.106E-04   12.36     243.9  T
     SCC iter.                  ...        0 min,  0.004 sec
     gradient                   ...        0 min,  0.002 sec
 * total energy  :   -25.4077814 Eh     change       -0.1933342E-05 Eh
   gradient norm :     0.0006724 Eh/α   predicted    -0.7381517E-06 ( -61.82%)
   displ. norm   :     0.0642515 α      lambda       -0.2937317E-05
   maximum displ.:     0.0389926 α      in ANC's #2, #1, #4, ...

........................................................................
.............................. CYCLE   31 ..............................
........................................................................
   1    -25.5634179 -0.255634E+02  0.235E-02   12.36       0.0  T
   2    -25.5634180 -0.728628E-07  0.144E-02   12.36       1.8  T
   3    -25.5634180 -0.365493E-07  0.954E-04   12.36      27.1  T
   4    -25.5634180 -0.126683E-08  0.302E-04   12.36      85.4  T
     SCC iter.                  ...        0 min,  0.004 sec
     gradient                   ...        0 min,  0.002 sec
 * total energy  :   -25.4077846 Eh     change       -0.3176409E-05 Eh
   gradient norm :     0.0006290 Eh/α   predicted    -0.1472293E-05 ( -53.65%)
   displ. norm   :     0.0518113 α      lambda       -0.1923364E-05
   maximum displ.:     0.0334278 α      in ANC's #2, #1, #3, ...

........................................................................
.............................. CYCLE   32 ..............................
........................................................................
   1    -25.5633653 -0.255634E+02  0.152E-02   12.36       0.0  T
   2    -25.5633653 -0.241099E-07  0.932E-03   12.36       2.8  T
   3    -25.5633653 -0.127623E-07  0.572E-04   12.36      45.2  T
   4    -25.5633653 -0.381419E-09  0.180E-04   12.36     143.7  T
     SCC iter.                  ...        0 min,  0.004 sec
     gradient                   ...        0 min,  0.002 sec
 * total energy  :   -25.4077869 Eh     change       -0.2281297E-05 Eh
   gradient norm :     0.0005380 Eh/α   predicted    -0.9645728E-06 ( -57.72%)
   displ. norm   :     0.0623863 α      lambda       -0.2233473E-05
   maximum displ.:     0.0390758 α      in ANC's #2, #1, #4, ...

........................................................................
.............................. CYCLE   33 ..............................
........................................................................
   1    -25.5633493 -0.255633E+02  0.175E-02   12.36       0.0  T
   2    -25.5633493 -0.329863E-07  0.107E-02   12.36       2.4  T
   3    -25.5633494 -0.190949E-07  0.683E-04   12.36      37.8  T
   4    -25.5633494 -0.428766E-09  0.199E-04   12.36     129.8  T
     SCC iter.                  ...        0 min,  0.004 sec
     gradient                   ...        0 min,  0.002 sec
 * total energy  :   -25.4077899 Eh     change       -0.3024419E-05 Eh
   gradient norm :     0.0005003 Eh/α   predicted    -0.1117455E-05 ( -63.05%)
   displ. norm   :     0.0720667 α      lambda       -0.3152418E-05
   maximum displ.:     0.0468305 α      in ANC's #1, #2, #4, ...

........................................................................
.............................. CYCLE   34 ..............................
........................................................................
   1    -25.5634467 -0.255634E+02  0.179E-02   12.37       0.0  T
   2    -25.5634468 -0.332855E-07  0.110E-02   12.37       2.4  T
   3    -25.5634468 -0.216065E-07  0.728E-04   12.37      35.5  T
   4    -25.5634468 -0.396653E-09  0.156E-04   12.37     165.8  T
     SCC iter.                  ...        0 min,  0.004 sec
     gradient                   ...        0 min,  0.002 sec
 * total energy  :   -25.4077941 Eh     change       -0.4151902E-05 Eh
   gradient norm :     0.0006476 Eh/α   predicted    -0.1579556E-05 ( -61.96%)
   displ. norm   :     0.1349400 α      lambda       -0.5129095E-05
   maximum displ.:     0.0843545 α      in ANC's #2, #1, #4, ...

........................................................................
.............................. CYCLE   35 ..............................
........................................................................
   1    -25.5632281 -0.255632E+02  0.371E-02   12.36       0.0  T
   2    -25.5632282 -0.156156E-06  0.227E-02   12.36       1.1  T
   3    -25.5632283 -0.947721E-07  0.155E-03   12.36      16.6  T
   4    -25.5632283 -0.222391E-08  0.459E-04   12.36      56.3  T
   5    -25.5632283 -0.219696E-09  0.748E-05   12.36     345.2  T
     SCC iter.                  ...        0 min,  0.004 sec
     gradient                   ...        0 min,  0.002 sec
 * total energy  :   -25.4078002 Eh     change       -0.6137250E-05 Eh
   gradient norm :     0.0009954 Eh/α   predicted    -0.2585623E-05 ( -57.87%)
   displ. norm   :     0.1262110 α      lambda       -0.4892361E-05
   maximum displ.:     0.0842522 α      in ANC's #1, #2, #4, ...

........................................................................
.............................. CYCLE   36 ..............................
........................................................................
   1    -25.5631010 -0.255631E+02  0.318E-02   12.36       0.0  T
   2    -25.5631011 -0.114840E-06  0.194E-02   12.36       1.3  T
   3    -25.5631012 -0.650463E-07  0.134E-03   12.36      19.3  T
   4    -25.5631012 -0.212552E-08  0.445E-04   12.36      58.1  T
   5    -25.5631012 -0.187484E-09  0.590E-05   12.36     437.9  T
     SCC iter.                  ...        0 min,  0.004 sec
     gradient                   ...        0 min,  0.002 sec
 * total energy  :   -25.4078062 Eh     change       -0.6003793E-05 Eh
   gradient norm :     0.0011962 Eh/α   predicted    -0.2462316E-05 ( -58.99%)
   displ. norm   :     0.1719792 α      lambda       -0.6278306E-05
   maximum displ.:     0.1152172 α      in ANC's #1, #2, #4, ...

........................................................................
.............................. CYCLE   37 ..............................
........................................................................
   1    -25.5630156 -0.255630E+02  0.426E-02   12.36       0.0  T
   2    -25.5630158 -0.198954E-06  0.260E-02   12.36       1.0  T
   3    -25.5630159 -0.114809E-06  0.176E-03   12.36      14.6  T
   4    -25.5630159 -0.356571E-08  0.583E-04   12.36      44.3  T
   5    -25.5630159 -0.334001E-09  0.876E-05   12.36     294.7  T
     SCC iter.                  ...        0 min,  0.004 sec
     gradient                   ...        0 min,  0.002 sec
 * total energy  :   -25.4078134 Eh     change       -0.7163754E-05 Eh
   gradient norm :     0.0011350 Eh/α   predicted    -0.3180447E-05 ( -55.60%)
   displ. norm   :     0.1846540 α      lambda       -0.6905741E-05
   maximum displ.:     0.1288709 α      in ANC's #1, #2, #4, ...

........................................................................
.............................. CYCLE   38 ..............................
........................................................................
   1    -25.5629373 -0.255629E+02  0.472E-02   12.36       0.0  T
   2    -25.5629376 -0.242031E-06  0.288E-02   12.36       1.0  T
   3    -25.5629377 -0.114435E-06  0.189E-03   12.36      13.7  T
   4    -25.5629377 -0.563389E-08  0.646E-04   12.36      40.0  T
   5    -25.5629377 -0.293479E-09  0.871E-05   12.36     296.6  T
     SCC iter.                  ...        0 min,  0.004 sec
     gradient                   ...        0 min,  0.002 sec
 * total energy  :   -25.4078187 Eh     change       -0.5313274E-05 Eh
   gradient norm :     0.0026552 Eh/α   predicted    -0.3504907E-05 ( -34.03%)
   displ. norm   :     0.1037027 α      lambda       -0.8384578E-05
   maximum displ.:     0.0760703 α      in ANC's #1, #2, #4, ...

........................................................................
.............................. CYCLE   39 ..............................
........................................................................
   1    -25.5632260 -0.255632E+02  0.250E-02   12.36       0.0  T
   2    -25.5632261 -0.699085E-07  0.153E-02   12.36       1.7  T
   3    -25.5632261 -0.404436E-07  0.104E-03   12.36      24.7  T
   4    -25.5632261 -0.119474E-08  0.336E-04   12.36      76.9  T
   5    -25.5632261 -0.115882E-09  0.464E-05   12.36     556.2  T
     SCC iter.                  ...        0 min,  0.004 sec
     gradient                   ...        0 min,  0.002 sec
 * total energy  :   -25.4078243 Eh     change       -0.5626501E-05 Eh
   gradient norm :     0.0011960 Eh/α   predicted    -0.4236994E-05 ( -24.70%)
   displ. norm   :     0.2458746 α      lambda       -0.7091124E-05
   maximum displ.:     0.1732215 α      in ANC's #1, #2, #4, ...

........................................................................
.............................. CYCLE   40 ..............................
........................................................................
   1    -25.5623390 -0.255623E+02  0.662E-02   12.34       0.0  T
   2    -25.5623394 -0.425850E-06  0.404E-02   12.34       1.0  T
   3    -25.5623397 -0.263863E-06  0.261E-03   12.34       9.9  T
   4    -25.5623397 -0.565789E-08  0.688E-04   12.34      37.5  T
   5    -25.5623397 -0.553314E-09  0.146E-04   12.34     177.1  T
     SCC iter.                  ...        0 min,  0.004 sec
     gradient                   ...        0 min,  0.002 sec
 * total energy  :   -25.4078252 Eh     change       -0.8563709E-06 Eh
   gradient norm :     0.0037277 Eh/α   predicted    -0.3639147E-05 ( 324.95%)
   displ. norm   :     0.0312761 α      lambda       -0.1664303E-04
   maximum displ.:     0.0238231 α      in ANC's #1, #3, #4, ...

........................................................................
.............................. CYCLE   41 ..............................
........................................................................
   1    -25.5633890 -0.255634E+02  0.138E-02   12.36       0.0  T
   2    -25.5633891 -0.595693E-07  0.823E-03   12.36       3.1  T
   3    -25.5633891 -0.156818E-07  0.103E-03   12.36      25.0  T
   4    -25.5633891 -0.202831E-08  0.242E-04   12.36     106.7  T
   5    -25.5633891 -0.292495E-10  0.210E-05   12.36    1226.8  T
     SCC iter.                  ...        0 min,  0.004 sec
     gradient                   ...        0 min,  0.002 sec
 * total energy  :   -25.4078339 Eh     change       -0.8705519E-05 Eh
   gradient norm :     0.0018083 Eh/α   predicted    -0.8329393E-05 (  -4.32%)
   displ. norm   :     0.1364050 α      lambda       -0.8853729E-05
   maximum displ.:     0.1078130 α      in ANC's #1, #2, #6, ...

........................................................................
.............................. CYCLE   42 ..............................
........................................................................
   1    -25.5633596 -0.255634E+02  0.418E-02   12.36       0.0  T
   2    -25.5633598 -0.200514E-06  0.255E-02   12.36       1.0  T
   3    -25.5633599 -0.909320E-07  0.172E-03   12.36      15.0  T
   4    -25.5633599 -0.464907E-08  0.570E-04   12.36      45.3  T
   5    -25.5633599 -0.199122E-09  0.731E-05   12.36     353.0  T
     SCC iter.                  ...        0 min,  0.004 sec
     gradient                   ...        0 min,  0.002 sec
 * total energy  :   -25.4078364 Eh     change       -0.2468803E-05 Eh
   gradient norm :     0.0022570 Eh/α   predicted    -0.4462323E-05 (  80.75%)
   displ. norm   :     0.0189618 α      lambda       -0.8038252E-05
   maximum displ.:     0.0097627 α      in ANC's #1, #14, #4, ...
 * RMSD in coord.:     0.3936603 α      energy gain  -0.1587007E-03 Eh

generating ANC from model Hessian ...
Using Lindh-Hessian (1995)
 Shifting diagonal of input Hessian by   1.013293938750356E-002
 Lowest  eigenvalues of input Hessian
    0.010000    0.010024    0.010121    0.000000    0.000000    0.000000
    0.000000    0.000000    0.000000    0.010181    0.012918    0.013846
    0.014666    0.014974    0.016288    0.016860    0.017601    0.018120
 Highest eigenvalues
    1.217066    1.399267    1.401628    1.404592    1.407239    1.411300
 

........................................................................
.............................. CYCLE   43 ..............................
........................................................................
   1    -25.5634834 -0.255635E+02  0.101E-02   12.36       0.0  T
   2    -25.5634835 -0.507273E-07  0.611E-03   12.37       4.2  T
   3    -25.5634835 -0.130965E-07  0.937E-04   12.37      27.6  T
   4    -25.5634835 -0.169465E-08  0.214E-04   12.37     120.6  T
     SCC iter.                  ...        0 min,  0.004 sec
     gradient                   ...        0 min,  0.002 sec
 * total energy  :   -25.4078420 Eh     change       -0.5645445E-05 Eh
   gradient norm :     0.0011725 Eh/α   predicted     0.0000000E+00 (-100.00%)
   displ. norm   :     0.0227731 α      lambda       -0.4932227E-05
   maximum displ.:     0.0098924 α      in ANC's #8, #7, #1, ...

........................................................................
.............................. CYCLE   44 ..............................
........................................................................
   1    -25.5634597 -0.255635E+02  0.122E-02   12.36       0.0  T
   2    -25.5634597 -0.269953E-07  0.749E-03   12.36       3.4  T
   3    -25.5634597 -0.114446E-07  0.615E-04   12.36      42.0  T
   4    -25.5634597 -0.677957E-09  0.185E-04   12.36     139.3  T
     SCC iter.                  ...        0 min,  0.004 sec
     gradient                   ...        0 min,  0.002 sec
 * total energy  :   -25.4078475 Eh     change       -0.5470120E-05 Eh
   gradient norm :     0.0003018 Eh/α   predicted    -0.2466990E-05 ( -54.90%)
   displ. norm   :     0.0559931 α      lambda       -0.6946015E-05
   maximum displ.:     0.0229179 α      in ANC's #8, #7, #1, ...

........................................................................
.............................. CYCLE   45 ..............................
........................................................................
   1    -25.5633314 -0.255633E+02  0.281E-02   12.36       0.0  T
   2    -25.5633316 -0.166115E-06  0.173E-02   12.36       1.5  T
   3    -25.5633316 -0.612158E-07  0.153E-03   12.36      16.9  T
   4    -25.5633316 -0.507369E-08  0.442E-04   12.36      58.4  T
   5    -25.5633316 -0.865477E-10  0.404E-05   12.36     639.6  T
     SCC iter.                  ...        0 min,  0.004 sec
     gradient                   ...        0 min,  0.002 sec
 * total energy  :   -25.4078548 Eh     change       -0.7308050E-05 Eh
   gradient norm :     0.0009507 Eh/α   predicted    -0.3477034E-05 ( -52.42%)
   displ. norm   :     0.0646628 α      lambda       -0.5235281E-05
   maximum displ.:     0.0288044 α      in ANC's #1, #7, #8, ...

........................................................................
.............................. CYCLE   46 ..............................
........................................................................
   1    -25.5632191 -0.255632E+02  0.313E-02   12.36       0.0  T
   2    -25.5632194 -0.254555E-06  0.192E-02   12.36       1.3  T
   3    -25.5632195 -0.828340E-07  0.191E-03   12.36      13.5  T
   4    -25.5632195 -0.853184E-08  0.522E-04   12.36      49.5  T
   5    -25.5632195 -0.113580E-09  0.480E-05   12.36     538.0  T
     SCC iter.                  ...        0 min,  0.004 sec
     gradient                   ...        0 min,  0.002 sec
 * total energy  :   -25.4078597 Eh     change       -0.4927541E-05 Eh
   gradient norm :     0.0009904 Eh/α   predicted    -0.2622997E-05 ( -46.77%)
   displ. norm   :     0.0396159 α      lambda       -0.3156226E-05
   maximum displ.:     0.0217434 α      in ANC's #1, #2, #7, ...

........................................................................
.............................. CYCLE   47 ..............................
........................................................................
   1    -25.5634294 -0.255634E+02  0.160E-02   12.37       0.0  T
   2    -25.5634295 -0.866023E-07  0.977E-03   12.37       2.6  T
   3    -25.5634295 -0.212939E-07  0.115E-03   12.37      22.5  T
   4    -25.5634295 -0.322644E-08  0.272E-04   12.37      94.8  T
   5    -25.5634295 -0.342553E-10  0.265E-05   12.37     974.0  T
     SCC iter.                  ...        0 min,  0.004 sec
     gradient                   ...        0 min,  0.002 sec
 * total energy  :   -25.4078628 Eh     change       -0.3075627E-05 Eh
   gradient norm :     0.0004016 Eh/α   predicted    -0.1578464E-05 ( -48.68%)
   displ. norm   :     0.0333726 α      lambda       -0.1856286E-05
   maximum displ.:     0.0209794 α      in ANC's #2, #1, #8, ...

........................................................................
.............................. CYCLE   48 ..............................
........................................................................
   1    -25.5635425 -0.255635E+02  0.112E-02   12.37       0.0  T
   2    -25.5635425 -0.382934E-07  0.682E-03   12.37       3.8  T
   3    -25.5635425 -0.107721E-07  0.762E-04   12.37      33.9  T
   4    -25.5635425 -0.139542E-08  0.200E-04   12.37     129.3  T
     SCC iter.                  ...        0 min,  0.004 sec
     gradient                   ...        0 min,  0.002 sec
 * total energy  :   -25.4078650 Eh     change       -0.2173027E-05 Eh
   gradient norm :     0.0003385 Eh/α   predicted    -0.9294642E-06 ( -57.23%)
   displ. norm   :     0.0347691 α      lambda       -0.1837249E-05
   maximum displ.:     0.0247390 α      in ANC's #2, #1, #8, ...

........................................................................
.............................. CYCLE   49 ..............................
........................................................................
   1    -25.5635856 -0.255636E+02  0.926E-03   12.37       0.0  T
   2    -25.5635857 -0.136452E-07  0.564E-03   12.37       4.6  T
   3    -25.5635857 -0.634656E-08  0.468E-04   12.37      55.1  T
   4    -25.5635857 -0.386866E-09  0.158E-04   12.37     163.1  T
     SCC iter.                  ...        0 min,  0.004 sec
     gradient                   ...        0 min,  0.002 sec
 * total energy  :   -25.4078674 Eh     change       -0.2422235E-05 Eh
   gradient norm :     0.0003884 Eh/α   predicted    -0.9182220E-06 ( -62.09%)
   displ. norm   :     0.0426012 α      lambda       -0.2244681E-05
   maximum displ.:     0.0308333 α      in ANC's #2, #1, #3, ...

........................................................................
.............................. CYCLE   50 ..............................
........................................................................
   1    -25.5635326 -0.255635E+02  0.111E-02   12.37       0.0  T
   2    -25.5635326 -0.171108E-07  0.676E-03   12.37       3.8  T
   3    -25.5635326 -0.876139E-08  0.514E-04   12.37      50.3  T
   4    -25.5635326 -0.402238E-09  0.183E-04   12.37     141.2  T
     SCC iter.                  ...        0 min,  0.004 sec
     gradient                   ...        0 min,  0.002 sec
 * total energy  :   -25.4078704 Eh     change       -0.3042148E-05 Eh
   gradient norm :     0.0004270 Eh/α   predicted    -0.1123893E-05 ( -63.06%)
   displ. norm   :     0.0551514 α      lambda       -0.2775276E-05
   maximum displ.:     0.0399881 α      in ANC's #2, #1, #3, ...

........................................................................
.............................. CYCLE   51 ..............................
........................................................................
   1    -25.5634633 -0.255635E+02  0.146E-02   12.36       0.0  T
   2    -25.5634634 -0.331382E-07  0.889E-03   12.36       2.9  T
   3    -25.5634634 -0.147857E-07  0.710E-04   12.36      36.3  T
   4    -25.5634634 -0.930427E-09  0.249E-04   12.36     103.8  T
     SCC iter.                  ...        0 min,  0.004 sec
     gradient                   ...        0 min,  0.002 sec
 * total energy  :   -25.4078742 Eh     change       -0.3780315E-05 Eh
   gradient norm :     0.0004384 Eh/α   predicted    -0.1389555E-05 ( -63.24%)
   displ. norm   :     0.0697774 α      lambda       -0.3282565E-05
   maximum displ.:     0.0502313 α      in ANC's #2, #1, #3, ...

........................................................................
.............................. CYCLE   52 ..............................
........................................................................
   1    -25.5634203 -0.255634E+02  0.184E-02   12.36       0.0  T
   2    -25.5634204 -0.450698E-07  0.112E-02   12.36       2.3  T
   3    -25.5634204 -0.193353E-07  0.810E-04   12.36      31.9  T
   4    -25.5634204 -0.124432E-08  0.278E-04   12.36      92.8  T
     SCC iter.                  ...        0 min,  0.004 sec
     gradient                   ...        0 min,  0.002 sec
 * total energy  :   -25.4078786 Eh     change       -0.4435496E-05 Eh
   gradient norm :     0.0004843 Eh/α   predicted    -0.1645646E-05 ( -62.90%)
   displ. norm   :     0.0921750 α      lambda       -0.3915298E-05
   maximum displ.:     0.0660986 α      in ANC's #2, #1, #3, ...

........................................................................
.............................. CYCLE   53 ..............................
........................................................................
   1    -25.5633070 -0.255633E+02  0.251E-02   12.36       0.0  T
   2    -25.5633071 -0.599235E-07  0.154E-02   12.36       1.7  T
   3    -25.5633071 -0.336029E-07  0.943E-04   12.36      27.4  T
   4    -25.5633071 -0.949228E-09  0.301E-04   12.36      85.7  T
     SCC iter.                  ...        0 min,  0.003 sec
     gradient                   ...        0 min,  0.012 sec
 * total energy  :   -25.4078837 Eh     change       -0.5108694E-05 Eh
   gradient norm :     0.0007193 Eh/α   predicted    -0.1964841E-05 ( -61.54%)
   displ. norm   :     0.1325140 α      lambda       -0.4960077E-05
   maximum displ.:     0.0950369 α      in ANC's #2, #1, #3, ...

........................................................................
.............................. CYCLE   54 ..............................
........................................................................
   1    -25.5632571 -0.255633E+02  0.353E-02   12.36       0.0  T
   2    -25.5632572 -0.112865E-06  0.216E-02   12.36       1.2  T
   3    -25.5632572 -0.600261E-07  0.128E-03   12.36      20.2  T
   4    -25.5632573 -0.194155E-08  0.424E-04   12.36      60.9  T
   5    -25.5632573 -0.141284E-09  0.599E-05   12.36     430.9  T
     SCC iter.                  ...        0 min,  0.004 sec
     gradient                   ...        0 min,  0.002 sec
 * total energy  :   -25.4078896 Eh     change       -0.5873052E-05 Eh
   gradient norm :     0.0009013 Eh/α   predicted    -0.2500810E-05 ( -57.42%)
   displ. norm   :     0.1328771 α      lambda       -0.4129739E-05
   maximum displ.:     0.0961761 α      in ANC's #2, #1, #3, ...

........................................................................
.............................. CYCLE   55 ..............................
........................................................................
   1    -25.5631403 -0.255631E+02  0.362E-02   12.35       0.0  T
   2    -25.5631404 -0.103363E-06  0.221E-02   12.35       1.2  T
   3    -25.5631405 -0.645373E-07  0.123E-03   12.35      20.9  T
   4    -25.5631405 -0.942634E-09  0.251E-04   12.35     103.0  T
   5    -25.5631405 -0.808171E-10  0.695E-05   12.35     371.4  T
     SCC iter.                  ...        0 min,  0.014 sec
     gradient                   ...        0 min,  0.002 sec
 * total energy  :   -25.4078940 Eh     change       -0.4419556E-05 Eh
   gradient norm :     0.0015061 Eh/α   predicted    -0.2081873E-05 ( -52.89%)
   displ. norm   :     0.1670786 α      lambda       -0.5092967E-05
   maximum displ.:     0.1236661 α      in ANC's #2, #1, #3, ...

........................................................................
.............................. CYCLE   56 ..............................
........................................................................
   1    -25.5632866 -0.255633E+02  0.440E-02   12.35       0.0  T
   2    -25.5632867 -0.170267E-06  0.269E-02   12.35       1.0  T
   3    -25.5632868 -0.902753E-07  0.157E-03   12.35      16.5  T
   4    -25.5632868 -0.287911E-08  0.518E-04   12.35      49.8  T
   5    -25.5632868 -0.197790E-09  0.779E-05   12.35     331.6  T
     SCC iter.                  ...        0 min,  0.004 sec
     gradient                   ...        0 min,  0.012 sec
 * total energy  :   -25.4078982 Eh     change       -0.4165732E-05 Eh
   gradient norm :     0.0011652 Eh/α   predicted    -0.2577582E-05 ( -38.12%)
   displ. norm   :     0.0834872 α      lambda       -0.3742872E-05
   maximum displ.:     0.0621514 α      in ANC's #2, #1, #8, ...

........................................................................
.............................. CYCLE   57 ..............................
........................................................................
   1    -25.5635026 -0.255635E+02  0.244E-02   12.36       0.0  T
   2    -25.5635027 -0.694504E-07  0.149E-02   12.36       1.7  T
   3    -25.5635027 -0.349292E-07  0.101E-03   12.36      25.5  T
   4    -25.5635027 -0.134541E-08  0.323E-04   12.36      80.0  T
   5    -25.5635027 -0.864624E-10  0.473E-05   12.36     546.1  T
     SCC iter.                  ...        0 min,  0.004 sec
     gradient                   ...        0 min,  0.002 sec
 * total energy  :   -25.4079013 Eh     change       -0.3127563E-05 Eh
   gradient norm :     0.0012352 Eh/α   predicted    -0.1878005E-05 ( -39.95%)
   displ. norm   :     0.0408224 α      lambda       -0.2139796E-05
   maximum displ.:     0.0306438 α      in ANC's #2, #1, #6, ...

........................................................................
.............................. CYCLE   58 ..............................
........................................................................
   1    -25.5635691 -0.255636E+02  0.147E-02   12.36       0.0  T
   2    -25.5635691 -0.291190E-07  0.899E-03   12.36       2.9  T
   3    -25.5635692 -0.130839E-07  0.634E-04   12.36      40.7  T
   4    -25.5635692 -0.704691E-09  0.204E-04   12.36     126.6  T
     SCC iter.                  ...        0 min,  0.004 sec
     gradient                   ...        0 min,  0.002 sec
 * total energy  :   -25.4079038 Eh     change       -0.2451272E-05 Eh
   gradient norm :     0.0009597 Eh/α   predicted    -0.1071598E-05 ( -56.28%)
   displ. norm   :     0.0755711 α      lambda       -0.2677697E-05
   maximum displ.:     0.0604166 α      in ANC's #2, #1, #8, ...

........................................................................
.............................. CYCLE   59 ..............................
........................................................................
   1    -25.5634464 -0.255634E+02  0.259E-02   12.35       0.0  T
   2    -25.5634465 -0.858056E-07  0.158E-02   12.36       1.6  T
   3    -25.5634465 -0.399619E-07  0.110E-03   12.36      23.5  T
   4    -25.5634465 -0.208382E-08  0.373E-04   12.36      69.2  T
   5    -25.5634465 -0.965699E-10  0.390E-05   12.36     662.8  T
     SCC iter.                  ...        0 min,  0.014 sec
     gradient                   ...        0 min,  0.002 sec
 * total energy  :   -25.4079065 Eh     change       -0.2766417E-05 Eh
   gradient norm :     0.0006642 Eh/α   predicted    -0.1342358E-05 ( -51.48%)
   displ. norm   :     0.0964936 α      lambda       -0.2754652E-05
   maximum displ.:     0.0821825 α      in ANC's #2, #1, #8, ...

........................................................................
.............................. CYCLE   60 ..............................
........................................................................
   1    -25.5634185 -0.255634E+02  0.313E-02   12.35       0.0  T
   2    -25.5634186 -0.102718E-06  0.192E-02   12.35       1.3  T
   3    -25.5634186 -0.554305E-07  0.118E-03   12.35      21.9  T
   4    -25.5634186 -0.169283E-08  0.397E-04   12.35      65.0  T
   5    -25.5634186 -0.116003E-09  0.460E-05   12.35     560.8  T
     SCC iter.                  ...        0 min,  0.004 sec
     gradient                   ...        0 min,  0.012 sec
 * total energy  :   -25.4079090 Eh     change       -0.2477661E-05 Eh
   gradient norm :     0.0007687 Eh/α   predicted    -0.1381707E-05 ( -44.23%)
   displ. norm   :     0.0935101 α      lambda       -0.2575778E-05
   maximum displ.:     0.0821287 α      in ANC's #2, #1, #3, ...

........................................................................
.............................. CYCLE   61 ..............................
........................................................................
   1    -25.5633253 -0.255633E+02  0.292E-02   12.35       0.0  T
   2    -25.5633254 -0.932384E-07  0.179E-02   12.35       1.4  T
   3    -25.5633255 -0.534274E-07  0.117E-03   12.35      22.1  T
   4    -25.5633255 -0.142082E-08  0.372E-04   12.35      69.5  T
   5    -25.5633255 -0.126633E-09  0.482E-05   12.35     535.6  T
     SCC iter.                  ...        0 min,  0.004 sec
     gradient                   ...        0 min,  0.002 sec
 * total energy  :   -25.4079115 Eh     change       -0.2452395E-05 Eh
   gradient norm :     0.0009128 Eh/α   predicted    -0.1292199E-05 ( -47.31%)
   displ. norm   :     0.1101653 α      lambda       -0.3054688E-05
   maximum displ.:     0.1021708 α      in ANC's #2, #1, #3, ...

........................................................................
.............................. CYCLE   62 ..............................
........................................................................
   1    -25.5634084 -0.255634E+02  0.309E-02   12.35       0.0  T
   2    -25.5634084 -0.738396E-07  0.188E-02   12.35       1.4  T
   3    -25.5634085 -0.486380E-07  0.105E-03   12.35      24.6  T
   4    -25.5634085 -0.657224E-09  0.154E-04   12.35     167.4  T
   5    -25.5634085 -0.301910E-10  0.576E-05   12.35     448.4  T
     SCC iter.                  ...        0 min,  0.004 sec
     gradient                   ...        0 min,  0.002 sec
 * total energy  :   -25.4079146 Eh     change       -0.3124665E-05 Eh
   gradient norm :     0.0013129 Eh/α   predicted    -0.1535861E-05 ( -50.85%)
   displ. norm   :     0.1690162 α      lambda       -0.4403461E-05
   maximum displ.:     0.1570295 α      in ANC's #2, #3, #1, ...

........................................................................
.............................. CYCLE   63 ..............................
........................................................................
   1    -25.5627308 -0.255627E+02  0.508E-02   12.33       0.0  T
   2    -25.5627310 -0.231080E-06  0.310E-02   12.33       1.0  T
   3    -25.5627311 -0.141967E-06  0.185E-03   12.33      14.0  T
   4    -25.5627311 -0.240446E-08  0.473E-04   12.33      54.6  T
   5    -25.5627311 -0.233413E-09  0.980E-05   12.33     263.4  T
     SCC iter.                  ...        0 min,  0.015 sec
     gradient                   ...        0 min,  0.002 sec
 * total energy  :   -25.4079145 Eh     change        0.1117336E-06 Eh
   gradient norm :     0.0025690 Eh/α   predicted    -0.2229610E-05 (*******%)
   displ. norm   :     0.0235388 α      lambda       -0.9436039E-05
   maximum displ.:     0.0128779 α      in ANC's #1, #4, #2, ...

........................................................................
.............................. CYCLE   64 ..............................
........................................................................
   1    -25.5634025 -0.255634E+02  0.881E-03   12.34       0.0  T
   2    -25.5634025 -0.324872E-07  0.523E-03   12.34       4.9  T
   3    -25.5634025 -0.742995E-08  0.752E-04   12.34      34.3  T
   4    -25.5634025 -0.106956E-08  0.182E-04   12.34     142.1  T
     SCC iter.                  ...        0 min,  0.004 sec
     gradient                   ...        0 min,  0.012 sec
 * total energy  :   -25.4079198 Eh     change       -0.5273513E-05 Eh
   gradient norm :     0.0008580 Eh/α   predicted    -0.4719297E-05 ( -10.51%)
   displ. norm   :     0.0552792 α      lambda       -0.3896898E-05
   maximum displ.:     0.0496013 α      in ANC's #2, #5, #3, ...

........................................................................
.............................. CYCLE   65 ..............................
........................................................................
   1    -25.5637676 -0.255638E+02  0.163E-02   12.35       0.0  T
   2    -25.5637676 -0.405808E-07  0.993E-03   12.35       2.6  T
   3    -25.5637677 -0.188874E-07  0.791E-04   12.35      32.6  T
   4    -25.5637677 -0.108813E-08  0.273E-04   12.35      94.5  T
     SCC iter.                  ...        0 min,  0.004 sec
     gradient                   ...        0 min,  0.002 sec
 * total energy  :   -25.4079233 Eh     change       -0.3498225E-05 Eh
   gradient norm :     0.0011985 Eh/α   predicted    -0.1950416E-05 ( -44.25%)
   displ. norm   :     0.1688343 α      lambda       -0.4537123E-05
   maximum displ.:     0.1583567 α      in ANC's #2, #3, #5, ...

........................................................................
.............................. CYCLE   66 ..............................
........................................................................
   1    -25.5634913 -0.255635E+02  0.480E-02   12.34       0.0  T
   2    -25.5634915 -0.206057E-06  0.293E-02   12.35       1.0  T
   3    -25.5634916 -0.129381E-06  0.178E-03   12.35      14.5  T
   4    -25.5634916 -0.260180E-08  0.489E-04   12.35      52.8  T
   5    -25.5634916 -0.281286E-09  0.971E-05   12.35     266.0  T
     SCC iter.                  ...        0 min,  0.004 sec
     gradient                   ...        0 min,  0.002 sec
 * total energy  :   -25.4079284 Eh     change       -0.5168368E-05 Eh
   gradient norm :     0.0009302 Eh/α   predicted    -0.2298996E-05 ( -55.52%)
   displ. norm   :     0.2000622 α      lambda       -0.5554469E-05
   maximum displ.:     0.1836345 α      in ANC's #2, #3, #5, ...
 * RMSD in coord.:     0.4745609 α      energy gain  -0.9207538E-04 Eh

generating ANC from model Hessian ...
Using Lindh-Hessian (1995)
 Shifting diagonal of input Hessian by   1.019131056716828E-002
 Lowest  eigenvalues of input Hessian
    0.010000    0.010067    0.000000    0.000000    0.000000    0.000000
    0.000000    0.000000    0.010276    0.010312    0.011731    0.012282
    0.012946    0.014287    0.015196    0.017197    0.019105    0.019900
 Highest eigenvalues
    1.213568    1.397828    1.401100    1.402516    1.406069    1.408259
 

........................................................................
.............................. CYCLE   67 ..............................
........................................................................
   1    -25.5630291 -0.255630E+02  0.555E-02   12.33       0.0  T
   2    -25.5630293 -0.274715E-06  0.339E-02   12.34       1.0  T
   3    -25.5630295 -0.167791E-06  0.203E-03   12.34      12.7  T
   4    -25.5630295 -0.349621E-08  0.585E-04   12.34      44.1  T
   5    -25.5630295 -0.370193E-09  0.109E-04   12.34     236.2  T
     SCC iter.                  ...        0 min,  0.004 sec
     gradient                   ...        0 min,  0.002 sec
 * total energy  :   -25.4079314 Eh     change       -0.2956707E-05 Eh
   gradient norm :     0.0020680 Eh/α   predicted     0.0000000E+00 (-100.00%)
   displ. norm   :     0.0107756 α      lambda       -0.6052902E-05
   maximum displ.:     0.0049791 α      in ANC's #5, #18, #3, ...

........................................................................
.............................. CYCLE   68 ..............................
........................................................................
   1    -25.5634310 -0.255634E+02  0.548E-03   12.35       0.0  T
   2    -25.5634311 -0.967286E-08  0.329E-03   12.34       7.8  T
   3    -25.5634311 -0.358362E-08  0.421E-04   12.34      61.3  T
   4    -25.5634311 -0.302489E-09  0.119E-04   12.34     217.3  T
     SCC iter.                  ...        0 min,  0.013 sec
     gradient                   ...        0 min,  0.002 sec
 * total energy  :   -25.4079354 Eh     change       -0.4015413E-05 Eh
   gradient norm :     0.0005413 Eh/α   predicted    -0.3027043E-05 ( -24.61%)
   displ. norm   :     0.0184998 α      lambda       -0.1828993E-05
   maximum displ.:     0.0101616 α      in ANC's #1, #9, #3, ...

........................................................................
.............................. CYCLE   69 ..............................
........................................................................
   1    -25.5636634 -0.255637E+02  0.641E-03   12.35       0.0  T
   2    -25.5636635 -0.893297E-08  0.390E-03   12.35       6.6  T
   3    -25.5636635 -0.375138E-08  0.388E-04   12.35      66.5  T
   4    -25.5636635 -0.264539E-09  0.116E-04   12.35     222.2  T
     SCC iter.                  ...        0 min,  0.004 sec
     gradient                   ...        0 min,  0.013 sec
 * total energy  :   -25.4079368 Eh     change       -0.1410210E-05 Eh
   gradient norm :     0.0007097 Eh/α   predicted    -0.9133750E-06 ( -35.23%)
   displ. norm   :     0.0141054 α      lambda       -0.8055373E-06
   maximum displ.:     0.0094696 α      in ANC's #1, #3, #2, ...

........................................................................
.............................. CYCLE   70 ..............................
........................................................................
   1    -25.5635638 -0.255636E+02  0.407E-03   12.35       0.0  T
   2    -25.5635638 -0.157272E-08  0.249E-03   12.35      10.4  T
   3    -25.5635638 -0.934428E-09  0.154E-04   12.35     167.5  T
   4    -25.5635638 -0.232525E-10  0.464E-05   12.35     556.2  T
     SCC iter.                  ...        0 min,  0.004 sec
     gradient                   ...        0 min,  0.002 sec
 * total energy  :   -25.4079379 Eh     change       -0.1072771E-05 Eh
   gradient norm :     0.0004739 Eh/α   predicted    -0.4042636E-06 ( -62.32%)
   displ. norm   :     0.0344193 α      lambda       -0.1650227E-05
   maximum displ.:     0.0222803 α      in ANC's #1, #3, #2, ...

........................................................................
.............................. CYCLE   71 ..............................
........................................................................
   1    -25.5633065 -0.255633E+02  0.907E-03   12.34       0.0  T
   2    -25.5633065 -0.105743E-07  0.555E-03   12.34       4.7  T
   3    -25.5633065 -0.562348E-08  0.399E-04   12.34      64.7  T
   4    -25.5633065 -0.230923E-09  0.140E-04   12.34     184.1  T
     SCC iter.                  ...        0 min,  0.013 sec
     gradient                   ...        0 min,  0.002 sec
 * total energy  :   -25.4079397 Eh     change       -0.1810753E-05 Eh
   gradient norm :     0.0002242 Eh/α   predicted    -0.8256284E-06 ( -54.40%)
   displ. norm   :     0.0334716 α      lambda       -0.9740513E-06
   maximum displ.:     0.0219264 α      in ANC's #1, #2, #3, ...

........................................................................
.............................. CYCLE   72 ..............................
........................................................................
   1    -25.5632139 -0.255632E+02  0.878E-03   12.34       0.0  T
   2    -25.5632139 -0.798537E-08  0.537E-03   12.34       4.8  T
   3    -25.5632139 -0.408409E-08  0.338E-04   12.34      76.4  T
   4    -25.5632139 -0.171454E-09  0.120E-04   12.34     215.0  T
     SCC iter.                  ...        0 min,  0.004 sec
     gradient                   ...        0 min,  0.012 sec
 * total energy  :   -25.4079408 Eh     change       -0.1129668E-05 Eh
   gradient norm :     0.0003927 Eh/α   predicted    -0.4874484E-06 ( -56.85%)
   displ. norm   :     0.0267918 α      lambda       -0.7094013E-06
   maximum displ.:     0.0179600 α      in ANC's #1, #2, #3, ...

........................................................................
.............................. CYCLE   73 ..............................
........................................................................
   1    -25.5632207 -0.255632E+02  0.667E-03   12.34       0.0  T
   2    -25.5632207 -0.438113E-08  0.408E-03   12.34       6.3  T
   3    -25.5632207 -0.231533E-08  0.256E-04   12.34     101.1  T
   4    -25.5632207 -0.804086E-10  0.826E-05   12.34     312.6  T
     SCC iter.                  ...        0 min,  0.004 sec
     gradient                   ...        0 min,  0.002 sec
 * total energy  :   -25.4079418 Eh     change       -0.9402262E-06 Eh
   gradient norm :     0.0003547 Eh/α   predicted    -0.3557788E-06 ( -62.16%)
   displ. norm   :     0.0310822 α      lambda       -0.8904324E-06
   maximum displ.:     0.0208646 α      in ANC's #1, #2, #3, ...

   *** GEOMETRY OPTIMIZATION CONVERGED AFTER 73 ITERATIONS ***

------------------------------------------------------------------------
 total energy gain   :        -0.0036028 Eh       -2.2608 kcal/mol
 total RMSD          :         0.9145248 a0        0.4839 Å
 total power (kW/mol):        -0.1295762 (step)   -9.3094 (real)
------------------------------------------------------------------------

 ANCopt (total)                0 d,  0 h,  0 min,  1.016 sec
 optimizer setup                ...        0 min,  0.000 sec (  0.012%)
 model hessian                  ...        0 min,  0.036 sec (  3.548%)
 ANC generation                 ...        0 min,  0.025 sec (  2.478%)
 coordinate transformation      ...        0 min,  0.001 sec (  0.094%)
 single point calculation       ...        0 min,  0.917 sec ( 90.254%)
 optimization log               ...        0 min,  0.007 sec (  0.669%)
 hessian update                 ...        0 min,  0.012 sec (  1.216%)
 rational function              ...        0 min,  0.013 sec (  1.297%)

================
 final structure:
================
15
 xtb: 6.3.3 (5b13467)
O        -1.06813862675493    1.98473376826692   -0.45928556418776
H        -0.47791381784413    2.66685016349781   -0.78274379810972
H        -0.97788715574838    1.23141428860964   -1.08554370609372
O        -0.75185728077921   -0.10390492300628   -2.11969118480369
H        -0.16388737168872   -0.75850551570489   -1.67756160128788
H        -1.55816171379962   -0.57583098001858   -2.33263972603686
O         1.48162815642984   -0.78498731341620    1.47403303619286
H         0.82570458942044   -0.07582516984902    1.65707220111269
H         1.53497934189082   -1.31220153826348    2.27240423327763
O        -0.46437178967112    1.00468185666292    1.96116646097853
H        -1.29964667490405    0.66638397774211    2.28787219619190
H        -0.67017674862268    1.42761114968812    1.09665736776545
O         0.83945964592067   -1.88224334934352   -0.89073464238511
H         1.05703305572344   -1.50343346076037   -0.01001763371444
H         1.67671427042990   -1.96813119410415   -1.34971502890329
 
 Bond Distances (Angstroems)
 ---------------------------
O1-H2=0.9583         O1-H3=0.9838         H2-O1=0.9583         H3-O1=0.9838         O4-H5=0.9847         O4-H6=0.9582         
H5-O4=0.9847         H6-O4=0.9582         O7-H8=0.9832         O7-H9=0.9582         H8-O7=0.9832         H9-O7=0.9582         
O10-H11=0.9586       O10-H12=0.9842       H11-O10=0.9586       H12-O10=0.9842       O13-H14=0.9831       O13-H15=0.9587       
H14-O13=0.9831       H15-O13=0.9587       
 O  H  Rav=0.9711 sigma=0.0127  Rmin=0.9582  Rmax=0.9847    10
 
 selected bond angles (degree)
 --------------------
H3-O1-H2=105.88                H6-O4-H5=105.95                H9-O7-H8=106.19                H12-O10-H11=105.59             
 
 selected dihedral angles (degree)
 ---------------------------------

 
 CMA Distance (Angstroems)
 ---------------------------
R(CMA):  2.8258
           -------------------------------------------------
          |                Final Singlepoint                |
           -------------------------------------------------

          ...................................................
          :                      SETUP                      :
          :.................................................:
          :  # basis functions                  30          :
          :  # atomic orbitals                  30          :
          :  # shells                           20          :
          :  # electrons                        40          :
          :  max. iterations                   250          :
          :  Hamiltonian                  GFN2-xTB          :
          :  restarted?                      false          :
          :  GBSA solvation                  false          :
          :  PC potential                    false          :
          :  electronic temp.          300.0000000     K    :
          :  accuracy                    1.0000000          :
          :  -> integral cutoff          0.2500000E+02      :
          :  -> integral neglect         0.1000000E-07      :
          :  -> SCF convergence          0.1000000E-05 Eh   :
          :  -> wf. convergence          0.1000000E-03 e    :
          :  Broyden damping             0.4000000          :
          ...................................................

 iter      E             dE          RMSdq      gap      omega  full diag
   1    -25.5632207 -0.255632E+02  0.111E-05   12.34       0.0  T
   2    -25.5632207 -0.852651E-13  0.654E-06   12.34    3947.4  T
   3    -25.5632207 -0.319744E-13  0.142E-06   12.34   18133.0  T

   *** convergence criteria satisfied after 3 iterations ***

         #    Occupation            Energy/Eh            Energy/eV
      -------------------------------------------------------------
         1        2.0000           -0.6728722             -18.3098
       ...           ...                  ...                  ...
        14        2.0000           -0.4987114             -13.5706
        15        2.0000           -0.4856634             -13.2156
        16        2.0000           -0.4387519             -11.9390
        17        2.0000           -0.4377635             -11.9122
        18        2.0000           -0.4364042             -11.8752
        19        2.0000           -0.4355486             -11.8519
        20        2.0000           -0.4346508             -11.8275 (HOMO)
        21                          0.0189431               0.5155 (LUMO)
        22                          0.0794626               2.1623
        23                          0.0818712               2.2278
        24                          0.1638107               4.4575
        25                          0.1642881               4.4705
       ...                                ...                  ...
        30                          0.3217925               8.7564
      -------------------------------------------------------------
                  HL-Gap            0.4535939 Eh           12.3429 eV
             Fermi-level           -0.2078539 Eh           -5.6560 eV

 SCC (total)                   0 d,  0 h,  0 min,  0.012 sec
 SCC setup                      ...        0 min,  0.007 sec ( 57.852%)
 Dispersion                     ...        0 min,  0.000 sec (  0.802%)
 classical contributions        ...        0 min,  0.000 sec (  0.607%)
 integral evaluation            ...        0 min,  0.001 sec (  7.294%)
 iterations                     ...        0 min,  0.002 sec ( 15.511%)
 molecular gradient             ...        0 min,  0.002 sec ( 16.888%)
 printout                       ...        0 min,  0.000 sec (  0.730%)

         :::::::::::::::::::::::::::::::::::::::::::::::::::::
         ::                     SUMMARY                     ::
         :::::::::::::::::::::::::::::::::::::::::::::::::::::
         :: total energy             -25.407941763948 Eh    ::
         :: gradient norm              0.000354429677 Eh/a0 ::
         :: HOMO-LUMO gap             12.342918797513 eV    ::
         ::.................................................::
         :: SCC energy               -25.563220672384 Eh    ::
         :: -> isotropic ES            0.153851833825 Eh    ::
         :: -> anisotropic ES         -0.020225706476 Eh    ::
         :: -> anisotropic XC         -0.003642741746 Eh    ::
         :: -> dispersion             -0.004355844103 Eh    ::
         :: repulsion energy           0.155236242751 Eh    ::
         :: add. restraining           0.000000000000 Eh    ::
         :: total charge               0.000000000000 e     ::
         :::::::::::::::::::::::::::::::::::::::::::::::::::::

           -------------------------------------------------
          |                Property Printout                |
           -------------------------------------------------

    * Orbital Energies and Occupations

         #    Occupation            Energy/Eh            Energy/eV
      -------------------------------------------------------------
         1        2.0000           -0.6728722             -18.3098
       ...           ...                  ...                  ...
         8        2.0000           -0.5592975             -15.2193
         9        2.0000           -0.5580248             -15.1846
        10        2.0000           -0.5552580             -15.1093
        11        2.0000           -0.5251670             -14.2905
        12        2.0000           -0.5228302             -14.2269
        13        2.0000           -0.5002028             -13.6112
        14        2.0000           -0.4987114             -13.5706
        15        2.0000           -0.4856634             -13.2156
        16        2.0000           -0.4387519             -11.9390
        17        2.0000           -0.4377635             -11.9122
        18        2.0000           -0.4364042             -11.8752
        19        2.0000           -0.4355486             -11.8519
        20        2.0000           -0.4346508             -11.8275 (HOMO)
        21                          0.0189431               0.5155 (LUMO)
        22                          0.0794626               2.1623
        23                          0.0818712               2.2278
        24                          0.1638107               4.4575
        25                          0.1642881               4.4705
        26                          0.2854928               7.7687
        27                          0.2963996               8.0654
        28                          0.2990416               8.1373
        29                          0.3195003               8.6940
        30                          0.3217925               8.7564
      -------------------------------------------------------------
                  HL-Gap            0.4535939 Eh           12.3429 eV
             Fermi-level           -0.2078539 Eh           -5.6560 eV

     #   Z          covCN         q      C6AA      α(0)
     1   8 O        1.608    -0.609    25.414     6.804
     2   1 H        0.806     0.281     0.781     1.388
     3   1 H        0.802     0.330     0.639     1.255
     4   8 O        1.608    -0.611    25.452     6.809
     5   1 H        0.802     0.329     0.640     1.257
     6   1 H        0.806     0.279     0.786     1.393
     7   8 O        1.608    -0.609    25.415     6.804
     8   1 H        0.802     0.331     0.634     1.251
     9   1 H        0.806     0.278     0.790     1.396
    10   8 O        1.608    -0.612    25.470     6.811
    11   1 H        0.806     0.279     0.788     1.394
    12   1 H        0.802     0.330     0.638     1.255
    13   8 O        1.608    -0.608    25.375     6.799
    14   1 H        0.802     0.331     0.635     1.252
    15   1 H        0.805     0.281     0.781     1.388

 Mol. C6AA /au·bohr⁶  :       1123.334174
 Mol. C8AA /au·bohr⁸  :      20194.310293
 Mol. α(0) /au        :         47.256672


Wiberg/Mayer (AO) data.
largest (>0.10) Wiberg bond orders for each atom

 ---------------------------------------------------------------------------
     #   Z sym  total        # sym  WBO       # sym  WBO       # sym  WBO
 ---------------------------------------------------------------------------
     1   8 O    1.873 --     2 H    0.919     3 H    0.825
     2   1 H    0.921 --     1 O    0.919
     3   1 H    0.891 --     1 O    0.825
     4   8 O    1.870 --     6 H    0.919     5 H    0.822
     5   1 H    0.892 --     4 O    0.822
     6   1 H    0.922 --     4 O    0.919
     7   8 O    1.867 --     9 H    0.919     8 H    0.826
     8   1 H    0.890 --     7 O    0.826
     9   1 H    0.923 --     7 O    0.919
    10   8 O    1.866 --    11 H    0.918    12 H    0.823
    11   1 H    0.922 --    10 O    0.918
    12   1 H    0.891 --    10 O    0.823
    13   8 O    1.876 --    15 H    0.919    14 H    0.826
    14   1 H    0.890 --    13 O    0.826
    15   1 H    0.921 --    13 O    0.919
 ---------------------------------------------------------------------------

Topologies differ in total number of bonds
Writing topology from bond orders to xtbtopo.mol

molecular dipole:
                 x           y           z       tot (Debye)
 q only:       -0.051      -0.336       0.066
   full:       -0.084      -0.490       0.102       1.291
molecular quadrupole (traceless):
                xx          xy          yy          xz          yz          zz
 q only:        0.978       0.772      -1.425      -1.703      -2.730       0.447
  q+dip:        1.127       0.739      -2.062      -2.234      -3.794       0.935
   full:        1.213       0.792      -2.170      -2.323      -3.926       0.957

           -------------------------------------------------
          |                Geometry Summary                 |
           -------------------------------------------------

      molecular mass/u    :       90.0764321
   center of mass at/Å    :        0.0059265       0.0365143      -0.0052820
  moments of inertia/u·Å² :        0.2368399E+03   0.2405289E+03   0.4555700E+03
rotational constants/cm⁻¹ :        0.7117733E-01   0.7008568E-01   0.3700338E-01

 * 10 selected distances

     #   Z          #   Z                                           value/Å
     1   8 O        2   1 H                                       0.9582658
     1   8 O        3   1 H                                       0.9837860
     4   8 O        5   1 H                                       0.9847279 (max)
     4   8 O        6   1 H                                       0.9582213 (min)
     7   8 O        8   1 H                                       0.9831836
     7   8 O        9   1 H                                       0.9582264
    10   8 O       11   1 H                                       0.9585751
    10   8 O       12   1 H                                       0.9841752
    13   8 O       14   1 H                                       0.9831061
    13   8 O       15   1 H                                       0.9586631

 * 1 distinct bonds (by element types)

   Z      Z             #   av. dist./Å        max./Å        min./Å
   1 H    8 O          10     0.9710931     0.9847279     0.9582213


optimized geometry written to: xtbopt.xyz


           -------------------------------------------------
          | TOTAL ENERGY              -25.407941763948 Eh   |
          | GRADIENT NORM               0.000354429677 Eh/α |
          | HOMO-LUMO GAP              12.342918797513 eV   |
           -------------------------------------------------

------------------------------------------------------------------------
 * finished run on 2021/02/02 at 19:21:42.442     
------------------------------------------------------------------------
 total:
 * wall-time:     0 d,  0 h,  0 min,  1.242 sec
 *  cpu-time:     0 d,  0 h,  0 min,  2.968 sec
 * ratio c/w:     2.390 speedup
 SCF:
 * wall-time:     0 d,  0 h,  0 min,  0.076 sec
 *  cpu-time:     0 d,  0 h,  0 min,  0.158 sec
 * ratio c/w:     2.080 speedup
 ANC optimizer:
 * wall-time:     0 d,  0 h,  0 min,  1.033 sec
 *  cpu-time:     0 d,  0 h,  0 min,  2.606 sec
 * ratio c/w:     2.524 speedup

normal termination of xtb
