15
 energy: -25.404338997932 gnorm: 0.048763646701 xtb: 6.3.3 (5b13467)
O        -1.16609362000000    1.93035252000000   -0.43340026000000
H        -0.94466589000000    2.68109885000000   -0.98438261000000
H        -1.11511917000000    1.17729701000000   -1.02207746000000
O        -0.88582246000000   -0.19399696000000   -2.10575329000000
H        -0.13544057000000   -0.69672072000000   -1.78885002000000
H        -1.50399687000000   -0.85553833000000   -2.41632578000000
O         1.17064948000000   -1.20209127000000    1.57702651000000
H         0.70741854000000   -0.38024831000000    1.73896197000000
H         0.92673397000000   -1.76401234000000    2.31254115000000
O        -0.27538246000000    1.07436048000000    1.99204725000000
H        -0.67965846000000    1.66702609000000    2.62571928000000
H        -0.59265774000000    1.37922852000000    1.14197448000000
O         1.18690596000000   -1.63904580000000   -1.10550265000000
H         1.17441771000000   -1.52076746000000   -0.15572050000000
H         2.11618946000000   -1.64033052000000   -1.33498546000000
15
 energy: -25.406167597555 gnorm: 0.014302671483 xtb: 6.3.3 (5b13467)
O        -1.19198033992997    1.93651707353286   -0.43595349196477
H        -0.92630825020676    2.67896306409745   -0.98264093365767
H        -1.12544415237755    1.15986086278416   -1.01588775526295
O        -0.87698360460619   -0.18671719471555   -2.13036797553037
H        -0.11558548004658   -0.68342220054877   -1.78686737058109
H        -1.50986017314699   -0.85529625119999   -2.40045119131255
O         1.19564078399951   -1.20187250942175    1.58863808402827
H         0.72160078247036   -0.36740399315004    1.72614338183033
H         0.91318938880177   -1.77174296135435    2.30693655817959
O        -0.28057727167622    1.07394357110161    1.99749187923607
H        -0.68122268109499    1.66713907397264    2.63446465568961
H        -0.58986029736607    1.38299275338333    1.13069438177851
O         1.18338832844536   -1.66624649768849   -1.10758430391020
H         1.15337463744010   -1.52633801387257   -0.14659223312992
H         2.11410620929424   -1.62376501692050   -1.33675107539288
15
 energy: -25.406669057943 gnorm: 0.006517072396 xtb: 6.3.3 (5b13467)
O        -1.20796791839136    1.92792073960957   -0.43859373974704
H        -0.90711932754920    2.67364734616411   -0.96518789077395
H        -1.14019875692091    1.14961292135681   -1.02817520770260
O        -0.85881739817882   -0.18107612336665   -2.13606551140473
H        -0.09657693297155   -0.68842370474269   -1.78924736678777
H        -1.51452466726737   -0.83905098295352   -2.38069161401531
O         1.20825767498416   -1.19397326545699    1.59129961592721
H         0.73718364036290   -0.35129993544527    1.72822117057491
H         0.90060863316991   -1.77905113676736    2.28862727389115
O        -0.27313659300880    1.08149705621411    1.98881516330053
H        -0.68162726166550    1.65971036295147    2.63467209619617
H        -0.60378212131220    1.37824351201707    1.11748508008660
O         1.17284114274603   -1.67746888691097   -1.09685258546768
H         1.15012005937730   -1.53727906552728   -0.12862758350272
H         2.09821770662548   -1.60639707714238   -1.34440629057477
15
 energy: -25.406993678604 gnorm: 0.011836546794 xtb: 6.3.3 (5b13467)
O        -1.23215962305688    1.90759116582519   -0.44087699590015
H        -0.88735433120519    2.65951633703977   -0.93505401840955
H        -1.14860277306680    1.13540390363771   -1.04481807942882
O        -0.82992652083476   -0.17268852974615   -2.13817772632216
H        -0.07616509455082   -0.69871010001836   -1.78600142819198
H        -1.51534760963551   -0.81175656488286   -2.35469239729912
O         1.22086613122212   -1.18015979502977    1.59018593367881
H         0.75394712419065   -0.33267757770569    1.73134186048344
H         0.88587438186265   -1.78439274075991    2.25970188066437
O        -0.27223972826604    1.08216621505113    1.97046601639658
H        -0.67901443211820    1.64799568998008    2.62798928142433
H        -0.60942428412659    1.38348486914383    1.09824907654721
O         1.15408954877774   -1.68980035232789   -1.07807811112125
H         1.14925831294147   -1.54535013181411   -0.10542586319085
H         2.06967677786623   -1.58401062839290   -1.35353681933089
15
 energy: -25.407235479108 gnorm: 0.011571681981 xtb: 6.3.3 (5b13467)
O        -1.24659382402176    1.88513202629446   -0.44080023397590
H        -0.87970907096325    2.64191361151534   -0.90686365956412
H        -1.14710773008799    1.12121682305701   -1.05674656688899
O        -0.79990949588853   -0.16144997662209   -2.13821296679380
H        -0.06023598469568   -0.70483805505435   -1.77490208531387
H        -1.50853784997793   -0.78135326264785   -2.33288900482578
O         1.23327455036285   -1.16477609370575    1.58685536521873
H         0.76590235833550   -0.31767296098203    1.72990772772123
H         0.87407849351710   -1.78390601548115    2.22972520947528
O        -0.25161805444983    1.09381629672813    1.94784559755176
H        -0.68048692003365    1.63122686321819    2.61626916863685
H        -0.62810426681982    1.37259279060220    1.08066275906894
O         1.13228794337381   -1.69979004226986   -1.05865257891911
H         1.14311712842135   -1.54580252129664   -0.08531321906809
H         2.03712060292802   -1.56969772335544   -1.35561290232320
15
 energy: -25.407405364439 gnorm: 0.006225689391 xtb: 6.3.3 (5b13467)
O        -1.27153286196222    1.86061615404315   -0.43888402971392
H        -0.87481790379666    2.61740721461254   -0.87683723849846
H        -1.13781135483619    1.10335439089013   -1.05864841498646
O        -0.77058965663006   -0.14954860978928   -2.13499899878737
H        -0.04768329802585   -0.70667114002758   -1.75760741364759
H        -1.49362427218223   -0.75083045970553   -2.31686071456716
O         1.24451433900644   -1.14970194697075    1.58124988489722
H         0.77458301238461   -0.30490328935219    1.71954038107125
H         0.86645914789380   -1.77390593490238    2.20300263590352
O        -0.25181687936227    1.08686416215522    1.92290426694362
H        -0.68097713480769    1.61080521483227    2.59981606655083
H        -0.61635518842509    1.38453862564395    1.06050015249731
O         1.10810127341279   -1.71066815876334   -1.03917587620935
H         1.13405611224681   -1.54029287713601   -0.06875880459334
H         2.00097254508414   -1.56045158552990   -1.35396928686023
15
 energy: -25.407484155122 gnorm: 0.005043531920 xtb: 6.3.3 (5b13467)
O        -1.27685162662962    1.85673460471041   -0.43956342822995
H        -0.87175966412612    2.61410534299856   -0.86762731341519
H        -1.13288080190374    1.10377647471705   -1.05968199775635
O        -0.76311731276855   -0.14701514898409   -2.13808214289107
H        -0.05067618319431   -0.70839791002416   -1.75064069822893
H        -1.49304896542621   -0.74302488270969   -2.31191400492443
O         1.25230507753786   -1.14536755046786    1.58435197849551
H         0.78198285887528   -0.30025366024843    1.71397787698233
H         0.85444797057166   -1.76846156673071    2.19695314171588
O        -0.23109322864537    1.09735117467463    1.91595139387386
H        -0.68939401912926    1.59930542748757    2.59293174101465
H        -0.62822681778037    1.36844507393302    1.05797955622473
O         1.10368398478824   -1.71596027020201   -1.03357791850751
H         1.13483666155760   -1.53548232406885   -0.06651889019224
H         1.99326994627329   -1.55914302508510   -1.35326668416141
15
 energy: -25.407513181248 gnorm: 0.002284494160 xtb: 6.3.3 (5b13467)
O        -1.27538500958678    1.85741543142793   -0.44022442437408
H        -0.87532498758243    2.61866533112383   -0.86158064008785
H        -1.13320265149238    1.10984568191856   -1.06414155475787
O        -0.76339628967014   -0.14900468319302   -2.13875609711353
H        -0.05565077592414   -0.71355301216889   -1.75134953442463
H        -1.49598252158571   -0.74031767439366   -2.31607678643421
O         1.25112301224768   -1.14702394091594    1.58754567918749
H         0.78757146718759   -0.29782911709244    1.71526116343928
H         0.85071160032952   -1.76393345626667    2.20141832564692
O        -0.22811012146112    1.09853267971957    1.91599441224875
H        -0.69312647256727    1.59578667607084    2.59013635074588
H        -0.62790086442668    1.36438180885677    1.05854228503922
O         1.10585431318159   -1.71755854318602   -1.03210207404970
H         1.14255567226473   -1.53752960155873   -0.06634450555509
H         1.99374150908592   -1.56126582034179   -1.35704998951070
15
 energy: -25.407535641551 gnorm: 0.005588062853 xtb: 6.3.3 (5b13467)
O        -1.29070459501783    1.85424132106152   -0.44264997419483
H        -0.86951830015793    2.62286507098975   -0.83790950101354
H        -1.13456869831583    1.11735632661069   -1.07453896668210
O        -0.75782525170156   -0.15142135455411   -2.14239462038941
H        -0.06244331754010   -0.72558567793733   -1.75031962026342
H        -1.50211552333769   -0.72953630170262   -2.31926508583903
O         1.26183164464611   -1.14351330760792    1.59770186502842
H         0.80701557645230   -0.28743574673415    1.71698490025842
H         0.83091788660018   -1.75830546362815    2.19759914513018
O        -0.22100766079043    1.10233644023122    1.90906989552132
H        -0.70288174377148    1.58219624384238    2.58267299400312
H        -0.62604396757571    1.36147069476271    1.05321948114641
O         1.10563635847786   -1.72383109765196   -1.02354783405251
H         1.15781473370518   -1.54060596047612   -0.05981525574060
H         1.98737073832738   -1.56361942720553   -1.36553481291255
15
 energy: -25.407558787021 gnorm: 0.003570608982 xtb: 6.3.3 (5b13467)
O        -1.29158190784905    1.85545789867294   -0.44284179957283
H        -0.87560032412268    2.62289465886101   -0.83912755340338
H        -1.13341736670006    1.11658998484771   -1.07229900347018
O        -0.75803864774908   -0.15052768921420   -2.14474718108334
H        -0.06260439618685   -0.72354342742000   -1.75067645892259
H        -1.50110025685096   -0.72847551765309   -2.32339780359911
O         1.26207882705344   -1.14395337503340    1.59847059402442
H         0.80923523516277   -0.28740295115452    1.72019754930698
H         0.83369563480224   -1.75790408083328    2.19811994301478
O        -0.21635919240424    1.10732249642509    1.90796617538785
H        -0.70985701334133    1.57497592207820    2.58512417990106
H        -0.62107132743696    1.36769684214323    1.05222558012129
O         1.10523310256247   -1.72512387180043   -1.02357885696943
H         1.15621234928745   -1.54202569160168   -0.05964806360952
H         1.98665316377333   -1.56936943831716   -1.36451469112614
15
 energy: -25.407568139937 gnorm: 0.001750205803 xtb: 6.3.3 (5b13467)
O        -1.29364100576956    1.85576349867612   -0.44340163571272
H        -0.87672511416149    2.62243299034370   -0.83813367243271
H        -1.13459610891478    1.11555295481210   -1.07161697319974
O        -0.75747818198374   -0.14954877154032   -2.14621083928085
H        -0.06160592607462   -0.72112761401377   -1.74973101196052
H        -1.49902872397465   -0.72757818313225   -2.32710580228538
O         1.26433669647286   -1.14337064621972    1.59974538524799
H         0.81067330191789   -0.28773484492652    1.72293107839741
H         0.83599719539693   -1.75827776554146    2.19672726140548
O        -0.21743917525845    1.10899676804386    1.90710623894748
H        -0.70886959111978    1.57298002289379    2.58581153995268
H        -0.62120143031559    1.37058922131468    1.05074828341234
O         1.10374387601506   -1.72893220608528   -1.02254480100273
H         1.15432417774727   -1.54234328536615   -0.05860371959987
H         1.98498789002318   -1.57079037925831   -1.36444872188901
15
 energy: -25.407577634922 gnorm: 0.003821193293 xtb: 6.3.3 (5b13467)
O        -1.30274098074379    1.85352056628884   -0.44527103744654
H        -0.87379822334212    2.62142145955124   -0.82687137885628
H        -1.13838085401626    1.11551630881619   -1.07497907553639
O        -0.75417830652119   -0.14857759429297   -2.14823744893690
H        -0.06176102876750   -0.72211905942835   -1.74855250107409
H        -1.49882495131018   -0.72161475147393   -2.33178680604492
O         1.27169036737162   -1.14050875305260    1.60414381498693
H         0.82224957279583   -0.28239959705743    1.72606190854827
H         0.83004354375735   -1.75584406564634    2.19076274179561
O        -0.20633706894184    1.11991468704355    1.90078501369084
H        -0.71918226093424    1.55519929132564    2.58522193270985
H        -0.62082519904543    1.37468141824985    1.04570492432363
O         1.10057213952867   -1.73155912202111   -1.01713446441888
H         1.15575268617088   -1.54235658772764   -0.05369587260032
H         1.97919844399881   -1.57866244057441   -1.36487914114099
15
 energy: -25.407582194418 gnorm: 0.003745685518 xtb: 6.3.3 (5b13467)
O        -1.30210522525202    1.85349317400268   -0.44549609350159
H        -0.87464012243677    2.62073420259230   -0.82651924726001
H        -1.13940376379234    1.11514938698059   -1.07461994626272
O        -0.75443236814035   -0.14889966767703   -2.14843448968734
H        -0.06276754850985   -0.72286272274690   -1.74831280822271
H        -1.50010130449024   -0.72188308033416   -2.33261483232388
O         1.27515923313235   -1.13912908422759    1.60626134521214
H         0.82587525242331   -0.28038431587471    1.72536312076683
H         0.82331382345968   -1.75608445512782    2.18709598651155
O        -0.20514119879138    1.12164918149075    1.89997039895589
H        -0.72109132622547    1.54859551572300    2.58586029765290
H        -0.61829244479948    1.37783091790676    1.04524045764050
O         1.10044259051305   -1.72964736277383   -1.01544071771157
H         1.15752704279027   -1.54023626022564   -0.05231867858656
H         1.97913524011987   -1.58171366970785   -1.36476218318361
15
 energy: -25.407598690629 gnorm: 0.001499182949 xtb: 6.3.3 (5b13467)
O        -1.30172904986773    1.85495305822841   -0.44529702077830
H        -0.86861342413554    2.61960800043380   -0.82794993601621
H        -1.14039983546195    1.11492080415729   -1.07262640828418
O        -0.75726852220488   -0.15005058650181   -2.14654363104285
H        -0.06421978625569   -0.72246298180393   -1.74725618424614
H        -1.50043637658962   -0.72663074983388   -2.33368716648210
O         1.27167578213039   -1.13920271764278    1.60488779992946
H         0.82485667760895   -0.27896715295288    1.72336970828027
H         0.82205031774364   -1.75391341493216    2.18728831525237
O        -0.20243400439821    1.12463935958889    1.90001135643609
H        -0.72310928836675    1.54102257650885    2.58708214175905
H        -0.61773738748541    1.37944042378962    1.04625154328102
O         1.10060101838878   -1.72681905298138   -1.01572843026843
H         1.15909473400664   -1.53712466041123   -0.05309959615131
H         1.98114702488798   -1.58280114564629   -1.36542988166891
15
 energy: -25.407601555832 gnorm: 0.008233405040 xtb: 6.3.3 (5b13467)
O        -1.30133120793902    1.85796192925102   -0.44297028286903
H        -0.85573763439161    2.61509377367064   -0.82765169226522
H        -1.14782911512051    1.11433934931735   -1.06699486151140
O        -0.76899714352907   -0.15423478960733   -2.13551048749970
H        -0.06888455422070   -0.71844478041241   -1.73991645228576
H        -1.49350656602825   -0.74232191855779   -2.34742028555507
O         1.26668227752508   -1.13510373015226    1.60383021121266
H         0.82983393230849   -0.26854219037197    1.71794463564206
H         0.80656851604857   -1.74591879209009    2.18078568885385
O        -0.17882971600131    1.14402793593146    1.89587086720804
H        -0.74224937159785    1.49828635951105    2.59093911745993
H        -0.60592977642541    1.39176277876555    1.04638755431549
O         1.09766968692614   -1.72295233619123   -1.01374011461143
H         1.16325494119852   -1.52535330867165   -0.05320953309455
H         1.98276361124757   -1.59198852039176   -1.36707175500002
15
 energy: -25.407629536625 gnorm: 0.003312751991 xtb: 6.3.3 (5b13467)
O        -1.29929087019407    1.85872994876253   -0.44072800409307
H        -0.85427327165865    2.61401839555660   -0.83076958835147
H        -1.15127587111119    1.11337406366221   -1.06463912889627
O        -0.77350129524384   -0.15403948651490   -2.13465412091459
H        -0.06846832839578   -0.71412412306799   -1.74082829544987
H        -1.49154548746955   -0.74893086204177   -2.34972005847190
O         1.26364280402691   -1.13380799605194    1.60109991111164
H         0.82529858869702   -0.26847803233524    1.71741694059970
H         0.80856056849786   -1.74582426730915    2.17982516775274
O        -0.17981268966601    1.14312357892042    1.89812943655404
H        -0.73751547515670    1.49806136078354    2.59194517111199
H        -0.60512103848168    1.39228944623886    1.04824036197798
O         1.09998008393784   -1.71522551930425   -1.01739803969415
H         1.15880622602158   -1.52181707762140   -0.05603792307894
H         1.98799393619692   -1.60073766967694   -1.36060922015798
15
 energy: -25.407641684264 gnorm: 0.003945679763 xtb: 6.3.3 (5b13467)
O        -1.30262941828496    1.85467316647895   -0.43877724760695
H        -0.85889415235744    2.61114755382298   -0.82424195865708
H        -1.15261927930772    1.11089593561086   -1.06541135046873
O        -0.76718824991312   -0.15051529482750   -2.14254210050607
H        -0.06723021660800   -0.71506910577645   -1.74127984691917
H        -1.49415748465433   -0.74365853522746   -2.34707867545442
O         1.26523330242009   -1.12998774071371    1.60199533600352
H         0.82938681120915   -0.26315860881169    1.71951520285875
H         0.80386689976233   -1.74302111146290    2.17495093361991
O        -0.17377290002612    1.14771471390884    1.89531287568415
H        -0.74190232875076    1.48601481093897    2.59004135845812
H        -0.59873540970144    1.39714783832406    1.04494272871536
O         1.09866496969895   -1.71778789412587   -1.01485211351464
H         1.15754356796206   -1.52178260876286   -0.05317410630008
H         1.98591176855203   -1.60600135937554   -1.35812842591286
15
 energy: -25.407654088882 gnorm: 0.002092459674 xtb: 6.3.3 (5b13467)
O        -1.30410624107106    1.85359247733579   -0.43665867802045
H        -0.85993591489287    2.61016590146489   -0.82112211385404
H        -1.15514849402983    1.11088633820805   -1.06472909310520
O        -0.76864176238388   -0.15083939533573   -2.14026650397123
H        -0.06631387690312   -0.71412743126767   -1.74287106258082
H        -1.49138189395513   -0.74487917949325   -2.35138836627921
O         1.26551757246777   -1.12806793772938    1.60283489158581
H         0.83123861897627   -0.25986076951263    1.71949109436853
H         0.79770107774519   -1.74102683830676    2.17279451625240
O        -0.16869464452370    1.15121191943892    1.89508966151808
H        -0.74263707604893    1.48059822805096    2.58834174342111
H        -0.59584257483513    1.39770415553561    1.04436645358259
O         1.09815103214908   -1.71898895932056   -1.01410331533023
H         1.15802832314455   -1.52177990615939   -0.05237564990086
H         1.98554373416153   -1.60797684290814   -1.35813096768667
15
 energy: -25.407665327869 gnorm: 0.003147703878 xtb: 6.3.3 (5b13467)
O        -1.30663134773044    1.85163828692382   -0.43209274611836
H        -0.85946976733762    2.60672020137887   -0.81654631747627
H        -1.16128723332505    1.10955097331038   -1.06129230026212
O        -0.77234068172381   -0.15125594319209   -2.13760767677604
H        -0.06617827835630   -0.71167329179584   -1.74456685558356
H        -1.48694366772058   -0.74968347950838   -2.36001416368474
O         1.26264156780612   -1.12449446267451    1.60247760918368
H         0.83342995447502   -0.25277871653224    1.71832266202918
H         0.78770026417638   -1.73438308782712    2.16966329648796
O        -0.15499174041653    1.16237750931280    1.89457768140081
H        -0.74948152104451    1.46010918023224    2.58686701783935
H        -0.58509245866672    1.40451527880920    1.04372588693482
O         1.09783253526417   -1.71836808748302   -1.01403189404497
H         1.15703984068915   -1.52062889367411   -0.05239560424596
H         1.98725041391154   -1.61503370727920   -1.35581398568398
15
 energy: -25.407677652070 gnorm: 0.002273221958 xtb: 6.3.3 (5b13467)
O        -1.30715958303330    1.84777649617912   -0.42674348106450
H        -0.86443170527167    2.60344104108205   -0.81427870239647
H        -1.16473455611007    1.10693591607821   -1.05779833534749
O        -0.77273676952598   -0.15066508861818   -2.13747532000075
H        -0.06459534720044   -0.71051228309529   -1.74716233238521
H        -1.48292145780411   -0.75138736388306   -2.36528980056442
O         1.25715530802298   -1.12256987749575    1.60049528378739
H         0.83241860985909   -0.24798903736375    1.71763078685323
H         0.78058129557335   -1.72876572825134    2.16954490314393
O        -0.14589065173032    1.16962768303182    1.89655156994428
H        -0.75105889255481    1.45007519081712    2.58482026411566
H        -0.57478617024313    1.40981740928103    1.04423086653609
O         1.09805415588542   -1.72107079219006   -1.01547252391464
H         1.15464503162697   -1.52275679399441   -0.05341417600672
H         1.98893861250690   -1.61534501157663   -1.35436639270063
15
 energy: -25.407690698266 gnorm: 0.003269223687 xtb: 6.3.3 (5b13467)
O        -1.30911857324033    1.84229579155611   -0.42067888171676
H        -0.87114328470489    2.59897414910703   -0.81139373527595
H        -1.16674635087166    1.10223983617664   -1.05258398168947
O        -0.77230164920011   -0.15062977629967   -2.13863939673990
H        -0.06414216884692   -0.71119244454379   -1.74896974045771
H        -1.47947556087710   -0.75301770576732   -2.37258668249903
O         1.24965260564349   -1.12041783281053    1.59795266090326
H         0.83457405661992   -0.24043394890300    1.71674934758504
H         0.76791045907917   -1.72106269861375    2.16824444545500
O        -0.13077250007085    1.18328537103893    1.89863085051553
H        -0.75560760938144    1.43046541814234    2.58346718620556
H        -0.56090575280088    1.41934552881753    1.04517802564226
O         1.09861869537126   -1.72205767770831   -1.01719358783310
H         1.15168058472684   -1.52387457577201   -0.05491176419179
H         1.99125492855446   -1.61730767441917   -1.35199213590324
15
 energy: -25.407713111200 gnorm: 0.001208275986 xtb: 6.3.3 (5b13467)
O        -1.30566134486443    1.84056154070387   -0.42117743328227
H        -0.87673578584394    2.60151205735235   -0.81581831916540
H        -1.16098080440215    1.10047415457004   -1.05242308561124
O        -0.76931217003684   -0.15115556856101   -2.14093007810998
H        -0.06446807804966   -0.71304969307438   -1.74736799081913
H        -1.48105326235108   -0.75034337855578   -2.37021583904256
O         1.24695991549528   -1.12032220719372    1.59629133020092
H         0.83406921230134   -0.23998266091191    1.71578158713658
H         0.76886784181476   -1.71955310724966    2.17162978277437
O        -0.12818235180799    1.18871517660599    1.90024554115695
H        -0.75694144800169    1.42252062136258    2.58458294131391
H        -0.56081422851560    1.42003992682907    1.04705870945447
O         1.09806661169179   -1.72359558952545   -1.01763417942075
H         1.15029746960980   -1.52454579143867   -0.05571585914855
H         1.98936630296136   -1.61466372091229   -1.35303449743759
15
 energy: -25.407741882925 gnorm: 0.004511263667 xtb: 6.3.3 (5b13467)
O        -1.29503248455912    1.83300332225234   -0.42141671784263
H        -0.90450704545921    2.61102059056107   -0.82955691128288
H        -1.13841426280887    1.09505331245606   -1.05226753468355
O        -0.75969267245124   -0.15343860147275   -2.14605265964727
H        -0.06384948178842   -0.72389268950101   -1.74854034738382
H        -1.48742584268452   -0.73930216252081   -2.36275322517099
O         1.23696119520621   -1.12053494371537    1.59168159570839
H         0.83249224523171   -0.23788476141791    1.71300139039955
H         0.77290686146815   -1.71339390417940    2.18637943555208
O        -0.12022158509696    1.20215189843692    1.90803944085929
H        -0.76949034465023    1.39145608093788    2.58578756847569
H        -0.54303387027381    1.43629999360675    1.05149840569502
O         1.09553722782549   -1.73005569784596   -1.01923059843766
H         1.14463585629277   -1.52934361067453   -0.05811526837923
H         1.98261208374898   -1.60452706692226   -1.35718196386225
15
 energy: -25.407755345461 gnorm: 0.002668556436 xtb: 6.3.3 (5b13467)
O        -1.29377249851495    1.83289253337097   -0.42187546049880
H        -0.90685241902262    2.61084297751935   -0.83042938308542
H        -1.13511578063224    1.09505580100887   -1.05256701106327
O        -0.75891295709818   -0.15359118563142   -2.14586120501997
H        -0.06315633679874   -0.72589048124496   -1.75038781348082
H        -1.48815867173350   -0.73740625723328   -2.36140623897042
O         1.23564260929095   -1.11906072678847    1.59143808379117
H         0.83203018742921   -0.23553052715129    1.71226935564559
H         0.77396660254140   -1.71025307351387    2.18902981167843
O        -0.11717791929573    1.20605478438494    1.90913847639877
H        -0.77271650957515    1.38210148256368    2.58545476533329
H        -0.54070821413373    1.43782953455540    1.05233966148594
O         1.09461993643079   -1.73233570249434   -1.01979784788482
H         1.14228728307804   -1.53185362743123   -0.05849373436446
H         1.98150256803538   -1.60224377191334   -1.35757884996549
15
 energy: -25.407768627054 gnorm: 0.001774440250 xtb: 6.3.3 (5b13467)
O        -1.29025967465848    1.83152499283500   -0.42143454304277
H        -0.91545761214484    2.61168187100888   -0.83207680808213
H        -1.12812511397772    1.09545523751485   -1.05385204039085
O        -0.75666949173313   -0.15349937766647   -2.14602640558918
H        -0.06141549316271   -0.72943072928854   -1.75383966968177
H        -1.48919995412640   -0.73328032683641   -2.35827032271395
O         1.23181581667289   -1.11544097320588    1.59021177503688
H         0.83086182693039   -0.22960464287383    1.71174383389879
H         0.77737229599927   -1.70273920501335    2.19605536345255
O        -0.11141030479478    1.21131928057989    1.91186279902956
H        -0.78087133544566    1.36061817320062    2.58238409093829
H        -0.53085634623635    1.44461328694204    1.05349463283043
O         1.09215319138492   -1.73808988619763   -1.02125208087903
H         1.13687272166533   -1.53836699956403   -0.05961849590484
H         1.97866735362819   -1.59814894143412   -1.35810951890225
15
 energy: -25.407773310569 gnorm: 0.000953591668 xtb: 6.3.3 (5b13467)
O        -1.28791361606891    1.83041289726940   -0.42005876078439
H        -0.92176484623212    2.61333877073670   -0.83326368457825
H        -1.12485056993876    1.09549558993910   -1.05381038806676
O        -0.75504877657606   -0.15246107731230   -2.14693100332561
H        -0.06040344409906   -0.72965359942331   -1.75521897338090
H        -1.48894788387583   -0.73116203018585   -2.35718439284757
O         1.23018040531119   -1.11347263519814    1.58916310136656
H         0.82927733506652   -0.22703719132655    1.71090140100874
H         0.78046789543689   -1.69907628126856    2.19994261606130
O        -0.10953873000989    1.21153192242135    1.91288897459169
H        -0.78312703263585    1.35246775088124    2.57989542003014
H        -0.52675695851552    1.44660988115024    1.05389821532245
O         1.09054849043247   -1.74044560328186   -1.02177162242878
H         1.13398311108795   -1.54106829365393   -0.06009534757815
H         1.97737250061789   -1.59886834074653   -1.35708294539078
15
 energy: -25.407774047601 gnorm: 0.002413754113 xtb: 6.3.3 (5b13467)
O        -1.28269993696605    1.82795096822340   -0.41755891919706
H        -0.93568165847721    2.61741784830021   -0.83734415083197
H        -1.11612925893139    1.09436233654324   -1.05224036151294
O        -0.75087551010392   -0.15028194342264   -2.14945271289714
H        -0.05891580480193   -0.73018573155322   -1.75672315819773
H        -1.48900787076817   -0.72603138684891   -2.35460874666090
O         1.22647361704165   -1.10953155553704    1.58584703017701
H         0.82639359158229   -0.22206313208118    1.70776885049294
H         0.78774966629062   -1.69106383299736    2.20901351067324
O        -0.10354702878396    1.21703675605207    1.91557975646703
H        -0.79178945790190    1.32909736907495    2.57504892217669
H        -0.51664472412381    1.45211950500788    1.05446688525805
O         1.08660425990453   -1.74531303354161   -1.02240828417855
H         1.12769744114849   -1.54491280746202   -0.06109079473310
H         1.97385055489170   -1.60198959975675   -1.35502521703587
15
 energy: -25.407777781496 gnorm: 0.000718550506 xtb: 6.3.3 (5b13467)
O        -1.28446937876039    1.82888195224796   -0.41742472901711
H        -0.93292763532854    2.61660478853771   -0.83570973704022
H        -1.11857458219081    1.09469106247379   -1.05141286775009
O        -0.75149651584680   -0.14944965885797   -2.14909286191996
H        -0.05911340254606   -0.72830786642317   -1.75597498460632
H        -1.48784228076289   -0.72681337621620   -2.35620273784468
O         1.22792937917858   -1.10969639993779    1.58574531610144
H         0.82659040024342   -0.22296278407949    1.70777069926179
H         0.78909770311776   -1.69197737219241    2.20796811093127
O        -0.10559055639143    1.21473817591460    1.91445267572591
H        -0.79039267971503    1.33301272710432    2.57428543037145
H        -0.51871426646029    1.45085343236406    1.05350978679556